----------------------------------------
Begin Torque Prologue (Fri Mar 15 18:55:52 2013)
Job ID:           389261.taubm1.campuscluster.illinois.edu
Username:         davis68
Group:            npre_rizwan
Job Name:         U6O-100-top
Limits:           ncpus=1,neednodes=24:ppn=12,nodes=24:ppn=12,walltime=12:00:00
Job Queue:        cse
Account:          NPRE
Nodes:            taub315 taub316 taub318 taub320 taub333 taub336 taub351 taub353 taub356 taub357 taub358 taub370 taub377 taub386 taub387 taub388 taub390 taub391 taub399 taub463 taub473 taub474 taub482 taub484
End Torque Prologue
----------------------------------------
 argument  1 = ./U6O-100-top.nw



============================== echo of input deck ==============================
title "Gamma-uranium (100) slab relaxation"
echo

permanent_dir ./perm
scratch_dir   ./scratch

start U6O-100-top

memory 2500 mb

nwpw
  # Real-space discretization
  simulation_cell
    ngrid 36 36 256
  end

  # Spin multiplicity---quenched to 1 in the solid state
  mult 3

  # Band, k-point sampling, and parallelism
  monkhorst-pack 4 4 1
  np_dimensions 8 12 8
  mapping 2

  # Periodicity considerations
  ewald_rcut 3.0
  ewald_ncut 8

  # Simulation parameters
  #restricted    # DFT||ODFT||RESTRICTED||UNRESTRICTED
  xc pbe96
  cutoff 90.0
  loop 10 300
end
set nwpw:minimizer      2
set nwpw:lcao_skip      .true.
set nwpw:kbpp_ray       .true.
set nwpw:cif_filename U6-pbe96.opt

#       (100) gamma-uranium surface with surface displacements:	29.7%	-15.3%	and O displacement of	0.750	Å
geometry	center	noautosym	noautoz	print
	system	crystal
	lat_a	3.44
	lat_b	3.44
	lat_c	25.32
	alpha	90.0d0
	beta	90.0d0
	gamma	90.0d0
	end
	U1	0.50000	0.50000	0.69401
	U2	0.00000	0.00000	0.64625
	U3	0.50000	0.50000	0.56793
	U4	0.00000	0.00000	0.50000
	U5	0.50000	0.50000	0.42168
	U6	0.00000	0.00000	0.37392
	O1	0.50000	0.50000	0.72363
end
task band energy

nwpw
  simulation_cell
    ngrid 64 64 512
  end
end

#       (100) gamma-uranium surface with surface displacements:	29.7%	-15.3%	and O displacement of	0.750	Å
geometry	center	noautosym	noautoz	print
	system	crystal
	lat_a	3.44
	lat_b	3.44
	lat_c	25.32
	alpha	90.0d0
	beta	90.0d0
	gamma	90.0d0
	end
	U1	0.50000	0.50000	0.69401
	U2	0.00000	0.00000	0.64625
	U3	0.50000	0.50000	0.56793
	U4	0.00000	0.00000	0.50000
	U5	0.50000	0.50000	0.42168
	U6	0.00000	0.00000	0.37392
	O1	0.50000	0.50000	0.72363
end
task band energy

#       (100) gamma-uranium surface with surface displacements:	29.7%	-15.3%	and O displacement of	1.000	Å
geometry	center	noautosym	noautoz	print
	system	crystal
	lat_a	3.44
	lat_b	3.44
	lat_c	25.32
	alpha	90.0d0
	beta	90.0d0
	gamma	90.0d0
	end
	U1	0.50000	0.50000	0.69401
	U2	0.00000	0.00000	0.64625
	U3	0.50000	0.50000	0.56793
	U4	0.00000	0.00000	0.50000
	U5	0.50000	0.50000	0.42168
	U6	0.00000	0.00000	0.37392
	O1	0.50000	0.50000	0.73350
end
task band energy

#       (100) gamma-uranium surface with surface displacements:	29.7%	-15.3%	and O displacement of	1.250	Å
geometry	center	noautosym	noautoz	print
	system	crystal
	lat_a	3.44
	lat_b	3.44
	lat_c	25.32
	alpha	90.0d0
	beta	90.0d0
	gamma	90.0d0
	end
	U1	0.50000	0.50000	0.69401
	U2	0.00000	0.00000	0.64625
	U3	0.50000	0.50000	0.56793
	U4	0.00000	0.00000	0.50000
	U5	0.50000	0.50000	0.42168
	U6	0.00000	0.00000	0.37392
	O1	0.50000	0.50000	0.74338
end
task band energy

#       (100) gamma-uranium surface with surface displacements:	29.7%	-15.3%	and O displacement of	1.500	Å
geometry	center	noautosym	noautoz	print
	system	crystal
	lat_a	3.44
	lat_b	3.44
	lat_c	25.32
	alpha	90.0d0
	beta	90.0d0
	gamma	90.0d0
	end
	U1	0.50000	0.50000	0.69401
	U2	0.00000	0.00000	0.64625
	U3	0.50000	0.50000	0.56793
	U4	0.00000	0.00000	0.50000
	U5	0.50000	0.50000	0.42168
	U6	0.00000	0.00000	0.37392
	O1	0.50000	0.50000	0.75325
end
task band energy

#       (100) gamma-uranium surface with surface displacements:	29.7%	-15.3%	and O displacement of	1.750	Å
geometry	center	noautosym	noautoz	print
	system	crystal
	lat_a	3.44
	lat_b	3.44
	lat_c	25.32
	alpha	90.0d0
	beta	90.0d0
	gamma	90.0d0
	end
	U1	0.50000	0.50000	0.69401
	U2	0.00000	0.00000	0.64625
	U3	0.50000	0.50000	0.56793
	U4	0.00000	0.00000	0.50000
	U5	0.50000	0.50000	0.42168
	U6	0.00000	0.00000	0.37392
	O1	0.50000	0.50000	0.76312
end
task band energy

#       (100) gamma-uranium surface with surface displacements:	29.7%	-15.3%	and O displacement of	2.000	Å
geometry	center	noautosym	noautoz	print
	system	crystal
	lat_a	3.44
	lat_b	3.44
	lat_c	25.32
	alpha	90.0d0
	beta	90.0d0
	gamma	90.0d0
	end
	U1	0.50000	0.50000	0.69401
	U2	0.00000	0.00000	0.64625
	U3	0.50000	0.50000	0.56793
	U4	0.00000	0.00000	0.50000
	U5	0.50000	0.50000	0.42168
	U6	0.00000	0.00000	0.37392
	O1	0.50000	0.50000	0.77300
end
task band energy

#       (100) gamma-uranium surface with surface displacements:	29.7%	-15.3%	and O displacement of	2.250	Å
geometry	center	noautosym	noautoz	print
	system	crystal
	lat_a	3.44
	lat_b	3.44
	lat_c	25.32
	alpha	90.0d0
	beta	90.0d0
	gamma	90.0d0
	end
	U1	0.50000	0.50000	0.69401
	U2	0.00000	0.00000	0.64625
	U3	0.50000	0.50000	0.56793
	U4	0.00000	0.00000	0.50000
	U5	0.50000	0.50000	0.42168
	U6	0.00000	0.00000	0.37392
	O1	0.50000	0.50000	0.78287
end
task band energy

#       (100) gamma-uranium surface with surface displacements:	29.7%	-15.3%	and O displacement of	2.500	Å
geometry	center	noautosym	noautoz	print
	system	crystal
	lat_a	3.44
	lat_b	3.44
	lat_c	25.32
	alpha	90.0d0
	beta	90.0d0
	gamma	90.0d0
	end
	U1	0.50000	0.50000	0.69401
	U2	0.00000	0.00000	0.64625
	U3	0.50000	0.50000	0.56793
	U4	0.00000	0.00000	0.50000
	U5	0.50000	0.50000	0.42168
	U6	0.00000	0.00000	0.37392
	O1	0.50000	0.50000	0.79275
end
task band energy

# A.M.D.G.
================================================================================


                                         
                                         


             Northwest Computational Chemistry Package (NWChem) 6.1.1
             --------------------------------------------------------


                    Environmental Molecular Sciences Laboratory
                       Pacific Northwest National Laboratory
                                Richland, WA 99352

                              Copyright (c) 1994-2012
                       Pacific Northwest National Laboratory
                            Battelle Memorial Institute

             NWChem is an open-source computational chemistry package
                        distributed under the terms of the
                      Educational Community License (ECL) 2.0
             A copy of the license is included with this distribution
                              in the LICENSE.TXT file

                                  ACKNOWLEDGMENT
                                  --------------

            This software and its documentation were developed at the
            EMSL at Pacific Northwest National Laboratory, a multiprogram
            national laboratory, operated for the U.S. Department of Energy
            by Battelle under Contract Number DE-AC05-76RL01830. Support
            for this work was provided by the Department of Energy Office
            of Biological and Environmental Research, Office of Basic
            Energy Sciences, and the Office of Advanced Scientific Computing.


           Job information
           ---------------

    hostname        = taub484
    program         = /home/davis68/bin/nwchem-dev
    date            = Fri Mar 15 18:55:58 2013

    compiled        = Wed_Oct_03_09:41:00_2012
    source          = /home/davis68/nwchem/nwchem-src-2012-Aug-27/
    nwchem branch   = Development
    nwchem revision = 22805
    ga revision     = 10079
    input           = ./U6O-100-top.nw
    prefix          = U6O-100-top.
    data base       = ./perm/U6O-100-top.db
    status          = startup
    nproc           =      288
    time left       =     -1s



           Memory information
           ------------------

    heap     =   81920001 doubles =    625.0 Mbytes
    stack    =   81920001 doubles =    625.0 Mbytes
    global   =  163840000 doubles =   1250.0 Mbytes (distinct from heap & stack)
    total    =  327680002 doubles =   2500.0 Mbytes
    verify   = yes
    hardfail = no 


           Directory information
           ---------------------

  0 permanent = ./perm
  0 scratch   = ./scratch




                                NWChem Input Module
                                -------------------


                        Gamma-uranium (100) slab relaxation
                        -----------------------------------

  !!!!!!!!!  geom_3d NEEDS TESTING !!!!!!!!!! 


                             Geometry "geometry" -> ""
                             -------------------------

 Output coordinates in angstroms (scale by  1.889725989 to convert to a.u.)

  No.       Tag          Charge          X              Y              Z
 ---- ---------------- ---------- -------------- -------------- --------------
    1 U1                  92.0000     1.72000000     1.72000000    17.57233320
    2 U2                  92.0000     0.00000000     0.00000000    16.36305000
    3 U3                  92.0000     1.72000000     1.72000000    14.37998760
    4 U4                  92.0000     0.00000000     0.00000000    12.66000000
    5 U5                  92.0000     1.72000000     1.72000000    10.67693760
    6 U6                  92.0000     0.00000000     0.00000000     9.46765440
    7 O1                   8.0000     1.72000000     1.72000000    18.32231160

      Lattice Parameters 
      ------------------ 

      lattice vectors in angstroms (scale by  1.889725989 to convert to a.u.)

      a1=<   3.440   0.000   0.000 >
      a2=<   0.000   3.440   0.000 >
      a3=<   0.000   0.000  25.320 >
      a=       3.440 b=      3.440 c=      25.320
      alpha=  90.000 beta=  90.000 gamma=  90.000
      omega=   299.6

      reciprocal lattice vectors in a.u.

      b1=<   0.967   0.000  -0.000 >
      b2=<  -0.000   0.967  -0.000 >
      b3=<   0.000   0.000   0.131 >

      Atomic Mass 
      ----------- 

      U1               238.050800
      U2               238.050800
      U3               238.050800
      U4               238.050800
      U5               238.050800
      U6               238.050800
      O1                15.994910


 ==============================================================================
                                internuclear distances
 ------------------------------------------------------------------------------
       center one      |      center two      | atomic units |  angstroms
 ------------------------------------------------------------------------------
    2 U2               |   1 U1               |     5.13337  |     2.71646
    3 U3               |   1 U1               |     6.03266  |     3.19235
    3 U3               |   2 U2               |     5.93065  |     3.13837
    4 U4               |   2 U2               |     6.99775  |     3.70305
    4 U4               |   3 U3               |     5.62972  |     2.97912
    5 U5               |   3 U3               |     6.99775  |     3.70305
    5 U5               |   4 U4               |     5.93065  |     3.13837
    6 U6               |   4 U4               |     6.03266  |     3.19235
    6 U6               |   5 U5               |     5.13337  |     2.71646
    7 O1               |   1 U1               |     1.41725  |     0.74998
 ------------------------------------------------------------------------------
                         number of included internuclear distances:         10
 ==============================================================================



 ==============================================================================
                                 internuclear angles
 ------------------------------------------------------------------------------
        center 1       |       center 2       |       center 3       |  degrees
 ------------------------------------------------------------------------------
    1 U1               |   2 U2               |   3 U3               |    65.62
    2 U2               |   1 U1               |   7 O1               |   116.43
    3 U3               |   1 U1               |   7 O1               |   180.00
    1 U1               |   2 U2               |   3 U3               |    65.62
    1 U1               |   2 U2               |   4 U4               |   116.43
    2 U2               |   3 U3               |   4 U4               |    74.45
    3 U3               |   2 U2               |   1 U1               |    65.62
    1 U1               |   3 U3               |   4 U4               |   125.26
    1 U1               |   3 U3               |   5 U5               |   180.00
    2 U2               |   3 U3               |   4 U4               |    74.45
    2 U2               |   3 U3               |   5 U5               |   129.19
    3 U3               |   4 U4               |   5 U5               |    74.45
    4 U4               |   3 U3               |   2 U2               |    74.45
    2 U2               |   4 U4               |   5 U5               |   129.19
    2 U2               |   4 U4               |   6 U6               |   180.00
    3 U3               |   4 U4               |   5 U5               |    74.45
    3 U3               |   4 U4               |   6 U6               |   125.26
    4 U4               |   5 U5               |   6 U6               |    65.62
    5 U5               |   4 U4               |   3 U3               |    74.45
    3 U3               |   5 U5               |   6 U6               |   116.43
    4 U4               |   5 U5               |   6 U6               |    65.62
    6 U6               |   5 U5               |   4 U4               |    65.62
 ------------------------------------------------------------------------------
                            number of included internuclear angles:         22
 ==============================================================================



          **********************************************************
          *                                                        *
          *                   NWPW BAND Calculation                *
          *                                                        *
          *  [(bundled Grassman/Stiefel manifold implementation)]  *
          *                                                        *
          *         [ NorthWest Chemistry implementation ]         *
          *                                                        *
          *                version #1.10   01/31/03                *
          *                                                        *
          *  A pseudopotential plane-wave band structure program   *
          *  with Brillouin zone sampling for optimizing crystals, *
          *  slabs, and polymers.  Developed by Eric J. Bylaska    *
          *  , Edoardo Apra, and Patrick Nichols.                  *
          *                                                        *
          **********************************************************
     >>>  JOB STARTED       AT Fri Mar 15 18:55:58 2013  <<<
          ================ input data ========================
  library name resolved from: environment
  NWCHEM_NWPW_LIBRARY set to: </home/davis68/nwchem/nwchem-6.1/src/nwpw/libraryps/>
 Generating 1d pseudopotential for U   

 Generated formatted_filename: ./perm/U.cpp
 - Spline fitted, nray=24215 -
  library name resolved from: environment
  NWCHEM_NWPW_LIBRARY set to: </home/davis68/nwchem/nwchem-6.1/src/nwpw/libraryps/>
 Generating 1d pseudopotential for O   

 Generated formatted_filename: ./perm/O.cpp
 - Spline fitted, nray=24215 -
 random planewave guess, initial psi:U6O-100-top.movecs                                
 -   spin, nalpha, nbeta:                    2                   46                   44

 input psi filename:./perm/U6O-100-top.movecs
Warning - Orthogonalization performed, spin,zone: 1   1
        - error(before)=  0.500593E+01 (  0.409941E+02)
        - error(after)=   0.000000E+00 (  0.460000E+02)
Warning - Orthogonalization performed, spin,zone: 2   1
        - error(before)=  0.479084E+01 (  0.392092E+02)
        - error(after)=   0.710543E-14 (  0.440000E+02)
Warning - Orthogonalization performed, spin,zone: 1   2
        - error(before)=  0.500973E+01 (  0.409903E+02)
        - error(after)=   0.000000E+00 (  0.460000E+02)
Warning - Orthogonalization performed, spin,zone: 2   2
        - error(before)=  0.479361E+01 (  0.392064E+02)
        - error(after)=   0.710543E-14 (  0.440000E+02)
Warning - Orthogonalization performed, spin,zone: 1   3
        - error(before)=  0.501130E+01 (  0.409887E+02)
        - error(after)=   0.000000E+00 (  0.460000E+02)
Warning - Orthogonalization performed, spin,zone: 2   3
        - error(before)=  0.479422E+01 (  0.392058E+02)
        - error(after)=   0.710543E-14 (  0.440000E+02)
Warning - Orthogonalization performed, spin,zone: 1   4
        - error(before)=  0.500648E+01 (  0.409935E+02)
        - error(after)=   0.000000E+00 (  0.460000E+02)
Warning - Orthogonalization performed, spin,zone: 2   4
        - error(before)=  0.478959E+01 (  0.392104E+02)
        - error(after)=   0.710543E-14 (  0.440000E+02)
Warning - Orthogonalization performed, spin,zone: 1   5
        - error(before)=  0.500921E+01 (  0.409908E+02)
        - error(after)=   0.710543E-14 (  0.460000E+02)
Warning - Orthogonalization performed, spin,zone: 2   5
        - error(before)=  0.479450E+01 (  0.392055E+02)
        - error(after)=   0.000000E+00 (  0.440000E+02)
Warning - Orthogonalization performed, spin,zone: 1   6
        - error(before)=  0.500967E+01 (  0.409903E+02)
        - error(after)=   0.000000E+00 (  0.460000E+02)
Warning - Orthogonalization performed, spin,zone: 2   6
        - error(before)=  0.479615E+01 (  0.392038E+02)
        - error(after)=   0.710543E-14 (  0.440000E+02)
Warning - Orthogonalization performed, spin,zone: 1   7
        - error(before)=  0.500950E+01 (  0.409905E+02)
        - error(after)=   0.142109E-13 (  0.460000E+02)
Warning - Orthogonalization performed, spin,zone: 2   7
        - error(before)=  0.479403E+01 (  0.392060E+02)
        - error(after)=   0.710543E-14 (  0.440000E+02)
Warning - Orthogonalization performed, spin,zone: 1   8
        - error(before)=  0.500808E+01 (  0.409919E+02)
        - error(after)=   0.710543E-14 (  0.460000E+02)
Warning - Orthogonalization performed, spin,zone: 2   8
        - error(before)=  0.479366E+01 (  0.392063E+02)
        - error(after)=   0.710543E-14 (  0.440000E+02)

 number of processors used:             288
 processor grid           :  36 x   1 x   8
 parallel mapping         :     2d  hilbert

 options:
      boundary conditions  = periodic    (version3)
      electron spin        = unrestricted
      exchange-correlation = PBE96 (White and Bird) parameterization

 elements involved in the cluster:
      1: U     core charge:14.0  lmax=3
             comment    : Parameterized (J.Chem. Phys. vol 128, 124507 (2008)) Troullier-Martins psp
             pseudpotential type            :   0
             highest angular component      :   3
             local potential used           :   0
             number of non-local projections:  15
             cutoff =   1.421   1.602   2.400   1.250
      2: O     core charge: 6.0  lmax=2
             comment    : Parameterized (Chem.Phys.Lett., vol 322, page 447) Hamman psp
             pseudpotential type            :   0
             highest angular component      :   2
             local potential used           :   2
             number of non-local projections:   4
             cutoff =   0.700   0.700   0.700

 total charge:   0.000

 atomic composition:
     U   :  6     O   :  1

 number of electrons: spin up=   46.00  spin down=   44.00 (fourier space)
 number of orbitals:  spin up=      46  spin down=      44 (fourier space)

 supercell:
      lattice:    a1=<   6.501   0.000   0.000 >
                  a2=<   0.000   6.501   0.000 >
                  a3=<   0.000   0.000  47.848 >
      reciprocal: b1=<   0.967   0.000  -0.000 >
                  b2=<  -0.000   0.967  -0.000 >
                  b3=<   0.000   0.000   0.131 >

      lattice:    a=   6.501    b=   6.501     c=  47.848
              alpha=  90.000 beta=  90.000 gamma=  90.000
      volume :     2022.0
      ewald summation: cut radius=    3.00  and  8
                        madelung=-4.59469223

 brillouin zone:
      number of zone points:     8
      weight=   0.125  ks=<   0.375   0.375   0.000 >, k=<   0.362   0.362  -0.000>
      weight=   0.125  ks=<   0.125   0.375   0.000 >, k=<   0.121   0.362  -0.000>
      weight=   0.125  ks=<  -0.125   0.375   0.000 >, k=<  -0.121   0.362  -0.000>
      weight=   0.125  ks=<   0.375  -0.375   0.000 >, k=<   0.362  -0.362  -0.000>
      weight=   0.125  ks=<   0.375   0.125   0.000 >, k=<   0.362   0.121  -0.000>
      weight=   0.125  ks=<   0.125   0.125   0.000 >, k=<   0.121   0.121  -0.000>
      weight=   0.125  ks=<   0.125  -0.125   0.000 >, k=<   0.121  -0.121  -0.000>
      weight=   0.125  ks=<   0.375  -0.125   0.000 >, k=<   0.362  -0.121  -0.000>

 computational grids:
      density     cutoff=141.262  fft=  36x  36x 256(   162259 waves     4507 per task)
      wavefnc   1 cutoff= 90.000  fft=  36x  36x 256(    82592 waves     2294 per task)
      wavefnc   2 cutoff= 90.000  fft=  36x  36x 256(    82409 waves     2289 per task)
      wavefnc   3 cutoff= 90.000  fft=  36x  36x 256(    82409 waves     2289 per task)
      wavefnc   4 cutoff= 90.000  fft=  36x  36x 256(    82592 waves     2294 per task)
      wavefnc   5 cutoff= 90.000  fft=  36x  36x 256(    82409 waves     2289 per task)
      wavefnc   6 cutoff= 90.000  fft=  36x  36x 256(    82433 waves     2289 per task)
      wavefnc   7 cutoff= 90.000  fft=  36x  36x 256(    82433 waves     2289 per task)
      wavefnc   8 cutoff= 90.000  fft=  36x  36x 256(    82409 waves     2289 per task)

 technical parameters:
      time step=      5.80     ficticious mass=  400000.0
      tolerance=.100E-06 (energy)   0.100E-06 (density)
      maximum iterations =      3000 (   10 inner    300 outer )



= energy calculation =


          ======== bundled Grassmann lmbfgs iteration ========
     >>>  ITERATION STARTED AT Fri Mar 15 18:56:40 2013  <<<
    iter.           Energy         DeltaE       DeltaRho 
    ------------------------------------------------------
     -  10 steepest descent iterations performed
      10   -0.2882048775E+03   -0.42464E+01    0.13005E+02
     -  10 steepest descent iterations performed
      20   -0.3095812228E+03   -0.41221E+00    0.18591E+00
     -  10 steepest descent iterations performed
      30   -0.3124169589E+03   -0.15847E+00    0.27761E-01
     -  10 steepest descent iterations performed
      40   -0.3133538030E+03   -0.52140E-01    0.17097E-01
     -  10 steepest descent iterations performed
      50   -0.3137689448E+03   -0.24580E-01    0.28904E-02
     -  10 steepest descent iterations performed
      60   -0.3139944597E+03   -0.13032E-01    0.28120E-02
     -  10 steepest descent iterations performed
      70   -0.3141292691E+03   -0.84643E-02    0.66884E-03
      80   -0.3142975291E+03   -0.68710E-02    0.49930E-02
      90   -0.3143359919E+03   -0.42951E-02    0.50597E-03
     100   -0.3143845593E+03   -0.42147E-02    0.18069E-02
     110   -0.3144099251E+03   -0.16086E-02    0.70265E-03
     120   -0.3144317294E+03   -0.28805E-02    0.10100E-02
     -  10 steepest descent iterations performed
     130   -0.3144510231E+03   -0.10653E-02    0.15474E-03
     140   -0.3144699167E+03   -0.18187E-02    0.85723E-03
     -  10 steepest descent iterations performed
     150   -0.3144814474E+03   -0.80017E-03    0.19999E-03
     160   -0.3144906383E+03   -0.10091E-02    0.72940E-03
     -  10 steepest descent iterations performed
     170   -0.3144994218E+03   -0.44326E-03    0.14539E-03
     180   -0.3145054949E+03   -0.71747E-03    0.46740E-03
     -  10 steepest descent iterations performed
     190   -0.3145120673E+03   -0.44148E-03    0.18135E-03
     200   -0.3145163195E+03   -0.45619E-03    0.36836E-03
     -  10 steepest descent iterations performed
     210   -0.3145213154E+03   -0.26131E-03    0.11368E-03
     220   -0.3145244695E+03   -0.36310E-03    0.24988E-03
     -  10 steepest descent iterations performed
     230   -0.3145284114E+03   -0.27584E-03    0.14411E-03
     240   -0.3145309661E+03   -0.28510E-03    0.26547E-03
     -  10 steepest descent iterations performed
     250   -0.3145343937E+03   -0.19072E-03    0.10703E-03
     260   -0.3145366910E+03   -0.27644E-03    0.26041E-03
     -  10 steepest descent iterations performed
     270   -0.3145399330E+03   -0.23278E-03    0.14287E-03
     280   -0.3145420909E+03   -0.24511E-03    0.28110E-03
     -  10 steepest descent iterations performed
     290   -0.3145452295E+03   -0.17817E-03    0.11331E-03
     300   -0.3145473099E+03   -0.24254E-03    0.26442E-03
     -  10 steepest descent iterations performed
     310   -0.3145503407E+03   -0.21833E-03    0.13946E-03
     320   -0.3145522823E+03   -0.21279E-03    0.24774E-03
     330   -0.3145629372E+03   -0.35045E-03    0.51321E-02
     -  10 steepest descent iterations performed
     340   -0.3145666630E+03   -0.24304E-03    0.12319E-03
     350   -0.3145683859E+03   -0.25797E-03    0.14066E-03
     -  10 steepest descent iterations performed
     360   -0.3145703781E+03   -0.14580E-03    0.60746E-04
     370   -0.3145722261E+03   -0.14888E-03    0.22989E-03
     -  10 steepest descent iterations performed
     380   -0.3145743186E+03   -0.86949E-04    0.60151E-04
     390   -0.3145751382E+03   -0.82714E-04    0.54497E-04
     400   -0.3145784544E+03   -0.12209E-03    0.11691E-02
     -  10 steepest descent iterations performed
     410   -0.3145798883E+03   -0.97680E-04    0.25469E-04
     420   -0.3145803974E+03   -0.50921E-04    0.24521E-04
     430   -0.3145810491E+03   -0.67085E-04    0.92368E-04
     -  10 steepest descent iterations performed
     440   -0.3145816214E+03   -0.32960E-04    0.15010E-04
     450   -0.3145820593E+03   -0.33601E-04    0.57948E-04
     -  10 steepest descent iterations performed
     460   -0.3145824985E+03   -0.35444E-04    0.17048E-04
     -  10 steepest descent iterations performed
     470   -0.3145827972E+03   -0.21318E-04    0.20967E-04
     480   -0.3145835883E+03   -0.98808E-04    0.45936E-03
     -  10 steepest descent iterations performed
     490   -0.3145842751E+03   -0.20663E-04    0.45061E-05
     500   -0.3145843771E+03   -0.11564E-04    0.54303E-05
     510   -0.3145848372E+03   -0.38982E-04    0.26369E-03
     -  10 steepest descent iterations performed
     520   -0.3145852138E+03   -0.11490E-04    0.54199E-05
     530   -0.3145853114E+03   -0.90946E-05    0.60156E-05
     540   -0.3145854483E+03   -0.18639E-04    0.31529E-04
     -  10 steepest descent iterations performed
     550   -0.3145856069E+03   -0.79875E-05    0.36299E-05
     560   -0.3145856994E+03   -0.10931E-04    0.12293E-04
     -  10 steepest descent iterations performed
     570   -0.3145858087E+03   -0.86726E-05    0.52037E-05
     580   -0.3145859015E+03   -0.90803E-05    0.17619E-04
     -  10 steepest descent iterations performed
     590   -0.3145860213E+03   -0.77601E-05    0.48109E-05
     600   -0.3145860777E+03   -0.57831E-05    0.64733E-05
     610   -0.3145863540E+03   -0.30835E-04    0.27346E-03
     -  10 steepest descent iterations performed
     620   -0.3145865913E+03   -0.38680E-05    0.14235E-05
     630   -0.3145866373E+03   -0.57159E-05    0.30323E-05
     -  10 steepest descent iterations performed
     640   -0.3145866899E+03   -0.62065E-05    0.58164E-05
     -  10 steepest descent iterations performed
     650   -0.3145867366E+03   -0.31826E-05    0.21592E-05
     660   -0.3145868652E+03   -0.16074E-04    0.95810E-04
     -  10 steepest descent iterations performed
     670   -0.3145869916E+03   -0.23443E-05    0.10778E-05
     680   -0.3145870200E+03   -0.39238E-05    0.25786E-05
     -  10 steepest descent iterations performed
     690   -0.3145870601E+03   -0.39889E-05    0.33193E-05
     -  10 steepest descent iterations performed
     700   -0.3145870960E+03   -0.28225E-05    0.23171E-05
     710   -0.3145872117E+03   -0.12214E-04    0.10305E-03
     -  10 steepest descent iterations performed
     720   -0.3145873286E+03   -0.21290E-05    0.74641E-06
     730   -0.3145873477E+03   -0.24387E-05    0.16750E-05
     -  10 steepest descent iterations performed
     740   -0.3145873786E+03   -0.29552E-05    0.26979E-05
     -  10 steepest descent iterations performed
     750   -0.3145874075E+03   -0.20626E-05    0.18941E-05
     760   -0.3145875150E+03   -0.22442E-04    0.11462E-03
     -  10 steepest descent iterations performed
     770   -0.3145876207E+03   -0.18765E-05    0.55737E-06
     780   -0.3145876349E+03   -0.16683E-05    0.11882E-05
     790   -0.3145877866E+03   -0.15339E-04    0.29679E-03
     -  10 steepest descent iterations performed
     800   -0.3145879120E+03   -0.26815E-05    0.98355E-06
     810   -0.3145879254E+03   -0.17810E-05    0.70903E-06
     820   -0.3145879435E+03   -0.36690E-05    0.46510E-05
     -  10 steepest descent iterations performed
     830   -0.3145879673E+03   -0.87107E-06    0.10485E-05
     840   -0.3145879894E+03   -0.25545E-05    0.84980E-05
     -  10 steepest descent iterations performed
     850   -0.3145880162E+03   -0.23490E-05    0.12002E-05
     860   -0.3145880278E+03   -0.19935E-05    0.18504E-05
     870   -0.3145881259E+03   -0.22198E-04    0.24897E-03
     -  10 steepest descent iterations performed
     880   -0.3145882077E+03   -0.10533E-05    0.40708E-06
     890   -0.3145882159E+03   -0.78869E-06    0.41505E-06
     900   -0.3145882259E+03   -0.61717E-06    0.24228E-05
     910   -0.3145882715E+03   -0.65306E-05    0.86529E-04
     -  10 steepest descent iterations performed
     920   -0.3145883158E+03   -0.11575E-05    0.32325E-06
     930   -0.3145883227E+03   -0.70691E-06    0.39482E-06
     940   -0.3145883312E+03   -0.11372E-05    0.23481E-05
     -  10 steepest descent iterations performed
     950   -0.3145883418E+03   -0.59920E-06    0.62627E-06
     960   -0.3145883500E+03   -0.10697E-05    0.23455E-05
     -  10 steepest descent iterations performed
     970   -0.3145883610E+03   -0.81400E-06    0.75952E-06
     980   -0.3145883671E+03   -0.60341E-06    0.12353E-05
     990   -0.3145884089E+03   -0.78794E-05    0.10191E-03
     -  10 steepest descent iterations performed
    1000   -0.3145884493E+03   -0.60413E-06    0.34302E-06
    1010   -0.3145884558E+03   -0.64971E-06    0.48532E-06
     -  10 steepest descent iterations performed
    1020   -0.3145884624E+03   -0.75219E-06    0.10353E-05
     -  10 steepest descent iterations performed
    1030   -0.3145884685E+03   -0.30574E-06    0.40219E-06
    1040   -0.3145884878E+03   -0.31254E-05    0.24239E-04
     -  10 steepest descent iterations performed
    1050   -0.3145885079E+03   -0.38363E-06    0.16665E-06
    1060   -0.3145885118E+03   -0.49292E-06    0.47986E-06
     -  10 steepest descent iterations performed
    1070   -0.3145885177E+03   -0.47141E-06    0.60480E-06
    1080   -0.3145885331E+03   -0.24956E-05    0.16182E-04
     -  10 steepest descent iterations performed
    1090   -0.3145885502E+03   -0.46046E-06    0.15994E-06
    1100   -0.3145885538E+03   -0.32872E-06    0.39581E-06
    1110   -0.3145885741E+03   -0.21328E-05    0.28159E-04
     -  10 steepest descent iterations performed
    1120   -0.3145885955E+03   -0.63202E-06    0.34716E-06
    1130   -0.3145885994E+03   -0.50558E-06    0.37372E-06
    1140   -0.3145886076E+03   -0.83454E-06    0.44414E-05
     -  10 steepest descent iterations performed
    1150   -0.3145886179E+03   -0.30765E-06    0.22991E-06
    1160   -0.3145886228E+03   -0.72474E-06    0.10832E-05
     -  10 steepest descent iterations performed
    1170   -0.3145886294E+03   -0.80977E-06    0.55190E-06
     -  10 steepest descent iterations performed
    1180   -0.3145886348E+03   -0.42839E-06    0.69463E-06
    1190   -0.3145886597E+03   -0.31317E-05    0.49347E-04
     -  10 steepest descent iterations performed
    1200   -0.3145886860E+03   -0.59888E-06    0.17212E-06
    1210   -0.3145886893E+03   -0.36178E-06    0.30399E-06
    1220   -0.3145886999E+03   -0.91507E-06    0.76451E-05
     -  10 steepest descent iterations performed
    1230   -0.3145887120E+03   -0.38178E-06    0.39068E-06
    1240   -0.3145887160E+03   -0.56883E-06    0.60792E-06
     -  10 steepest descent iterations performed
    1250   -0.3145887226E+03   -0.77063E-06    0.99036E-06
     -  10 steepest descent iterations performed
    1260   -0.3145887282E+03   -0.56518E-06    0.63808E-06
    1270   -0.3145887431E+03   -0.15333E-05    0.17002E-04
     -  10 steepest descent iterations performed
    1280   -0.3145887598E+03   -0.47370E-06    0.37588E-06
    1290   -0.3145887631E+03   -0.44558E-06    0.41410E-06
    1300   -0.3145887766E+03   -0.67406E-06    0.14139E-04
     -  10 steepest descent iterations performed
    1310   -0.3145887921E+03   -0.27625E-06    0.34967E-06
    1320   -0.3145887965E+03   -0.75305E-06    0.95486E-06
     -  10 steepest descent iterations performed
    1330   -0.3145888028E+03   -0.60916E-06    0.74092E-06
    1340   -0.3145888123E+03   -0.72861E-06    0.64016E-05
     -  10 steepest descent iterations performed
    1350   -0.3145888243E+03   -0.51948E-06    0.48763E-06
    1360   -0.3145888278E+03   -0.44406E-06    0.55928E-06
    1370   -0.3145888478E+03   -0.33777E-05    0.35911E-04
     -  10 steepest descent iterations performed
    1380   -0.3145888698E+03   -0.40236E-06    0.23838E-06
    1390   -0.3145888745E+03   -0.55418E-06    0.70478E-06
     -  10 steepest descent iterations performed
    1400   -0.3145888809E+03   -0.69790E-06    0.11808E-05
     -  10 steepest descent iterations performed
    1410   -0.3145888866E+03   -0.34248E-06    0.60619E-06
    1420   -0.3145889017E+03   -0.30062E-05    0.19829E-04
     -  10 steepest descent iterations performed
    1430   -0.3145889188E+03   -0.64835E-06    0.31981E-06
    1440   -0.3145889222E+03   -0.41055E-06    0.45617E-06
    1450   -0.3145889430E+03   -0.14707E-05    0.38210E-04
     -  10 steepest descent iterations performed
    1460   -0.3145889654E+03   -0.58877E-06    0.41968E-06
    1470   -0.3145889697E+03   -0.30437E-06    0.51077E-06
    1480   -0.3145889794E+03   -0.20192E-05    0.80085E-05
     -  10 steepest descent iterations performed
    1490   -0.3145889914E+03   -0.55520E-06    0.32766E-06
    1500   -0.3145889961E+03   -0.51979E-06    0.10512E-05
    1510   -0.3145890126E+03   -0.15843E-05    0.23674E-04
     -  10 steepest descent iterations performed
    1520   -0.3145890316E+03   -0.56672E-06    0.40101E-06
    1530   -0.3145890362E+03   -0.47975E-06    0.58334E-06
    1540   -0.3145890439E+03   -0.11364E-05    0.46078E-05
     -  10 steepest descent iterations performed
    1550   -0.3145890540E+03   -0.43690E-06    0.38297E-06
    1560   -0.3145890597E+03   -0.72559E-06    0.17237E-05
     -  10 steepest descent iterations performed
    1570   -0.3145890674E+03   -0.78567E-06    0.85320E-06
     -  10 steepest descent iterations performed
    1580   -0.3145890735E+03   -0.63866E-06    0.11081E-05
    1590   -0.3145890932E+03   -0.29524E-05    0.35956E-04
     -  10 steepest descent iterations performed
    1600   -0.3145891148E+03   -0.44159E-06    0.22390E-06
    1610   -0.3145891188E+03   -0.38203E-06    0.47386E-06
    1620   -0.3145891304E+03   -0.12747E-05    0.10088E-04
     -  10 steepest descent iterations performed
    1630   -0.3145891442E+03   -0.52782E-06    0.66107E-06
    1640   -0.3145891490E+03   -0.75041E-06    0.12113E-05
     -  10 steepest descent iterations performed
    1650   -0.3145891564E+03   -0.58781E-06    0.98647E-06
    1660   -0.3145891640E+03   -0.87443E-06    0.39791E-05
     -  10 steepest descent iterations performed
    1670   -0.3145891748E+03   -0.77998E-06    0.75535E-06
    1680   -0.3145891787E+03   -0.41727E-06    0.79869E-06
    1690   -0.3145892184E+03   -0.64901E-05    0.15530E-03
     -  10 steepest descent iterations performed
    1700   -0.3145892587E+03   -0.29858E-06    0.16309E-06
    1710   -0.3145892639E+03   -0.73164E-06    0.70118E-06
     -  10 steepest descent iterations performed
    1720   -0.3145892716E+03   -0.18131E-05    0.25370E-05
     -  10 steepest descent iterations performed
    1730   -0.3145892784E+03   -0.29714E-06    0.41480E-06
    1740   -0.3145892904E+03   -0.19835E-05    0.12342E-04
     -  10 steepest descent iterations performed
    1750   -0.3145893037E+03   -0.51035E-06    0.35078E-06
    1760   -0.3145893082E+03   -0.63366E-06    0.97409E-06
     -  10 steepest descent iterations performed
    1770   -0.3145893149E+03   -0.43651E-06    0.84564E-06
    1780   -0.3145893248E+03   -0.91697E-06    0.79335E-05
     -  10 steepest descent iterations performed
    1790   -0.3145893372E+03   -0.61136E-06    0.51190E-06
    1800   -0.3145893412E+03   -0.42003E-06    0.63557E-06
    1810   -0.3145893630E+03   -0.43685E-05    0.44318E-04
     -  10 steepest descent iterations performed
    1820   -0.3145893864E+03   -0.34469E-06    0.23618E-06
    1830   -0.3145893920E+03   -0.53104E-06    0.10083E-05
     -  10 steepest descent iterations performed
    1840   -0.3145893990E+03   -0.11464E-05    0.13819E-05
     -  10 steepest descent iterations performed
    1850   -0.3145894049E+03   -0.47093E-06    0.58832E-06
    1860   -0.3145894266E+03   -0.12034E-05    0.38855E-04
     -  10 steepest descent iterations performed
    1870   -0.3145894497E+03   -0.40829E-06    0.51470E-06
    1880   -0.3145894533E+03   -0.40433E-06    0.34129E-06
    1890   -0.3145894682E+03   -0.24515E-05    0.18125E-04
     -  10 steepest descent iterations performed
    1900   -0.3145894849E+03   -0.41133E-06    0.21663E-06
    1910   -0.3145894900E+03   -0.10092E-05    0.11406E-05
     -  10 steepest descent iterations performed
    1920   -0.3145894966E+03   -0.58242E-06    0.61973E-06
    1930   -0.3145895080E+03   -0.10574E-05    0.87800E-05
     -  10 steepest descent iterations performed
    1940   -0.3145895215E+03   -0.55691E-06    0.35103E-06
    1950   -0.3145895260E+03   -0.61955E-06    0.77556E-06
     -  10 steepest descent iterations performed
    1960   -0.3145895330E+03   -0.74681E-06    0.86074E-06
     -  10 steepest descent iterations performed
    1970   -0.3145895394E+03   -0.69405E-06    0.83641E-06
    1980   -0.3145895612E+03   -0.32152E-05    0.34288E-04
     -  10 steepest descent iterations performed
    1990   -0.3145895860E+03   -0.44706E-06    0.25805E-06
    2000   -0.3145895898E+03   -0.44846E-06    0.45114E-06
     -  10 steepest descent iterations performed
    2010   -0.3145895969E+03   -0.10270E-05    0.11416E-05
     -  10 steepest descent iterations performed
    2020   -0.3145896038E+03   -0.45954E-06    0.62649E-06
    2030   -0.3145896266E+03   -0.34899E-05    0.33244E-04
     -  10 steepest descent iterations performed
    2040   -0.3145896522E+03   -0.45055E-06    0.25052E-06
    2050   -0.3145896559E+03   -0.42583E-06    0.38525E-06
    2060   -0.3145897673E+03   -0.21565E-04    0.76902E-03
     -  10 steepest descent iterations performed
    2070   -0.3145898719E+03   -0.29042E-05    0.31961E-06
    2080   -0.3145898831E+03   -0.37833E-06    0.19083E-06
    2090   -0.3145898894E+03   -0.61120E-06    0.83661E-06
     -  10 steepest descent iterations performed
    2100   -0.3145898983E+03   -0.79790E-06    0.88648E-06
     -  10 steepest descent iterations performed
    2110   -0.3145899056E+03   -0.55968E-06    0.59615E-06
    2120   -0.3145899264E+03   -0.47701E-05    0.19984E-04
     -  10 steepest descent iterations performed
    2130   -0.3145899483E+03   -0.53162E-06    0.17658E-06
    2140   -0.3145899533E+03   -0.40515E-06    0.47762E-06
    2150   -0.3145899710E+03   -0.14851E-05    0.13871E-04
     -  10 steepest descent iterations performed
    2160   -0.3145899905E+03   -0.73287E-06    0.44106E-06
    2170   -0.3145899951E+03   -0.63407E-06    0.41297E-06
    2180   -0.3145900084E+03   -0.17422E-05    0.88030E-05
     -  10 steepest descent iterations performed
    2190   -0.3145900239E+03   -0.33268E-06    0.21686E-06
    2200   -0.3145900293E+03   -0.61558E-06    0.82517E-06
     -  10 steepest descent iterations performed
    2210   -0.3145900366E+03   -0.85334E-06    0.67063E-06
     -  10 steepest descent iterations performed
    2220   -0.3145900426E+03   -0.41365E-06    0.54963E-06
    2230   -0.3145900664E+03   -0.27441E-05    0.33470E-04
     -  10 steepest descent iterations performed
    2240   -0.3145900905E+03   -0.59474E-06    0.14586E-06
    2250   -0.3145900938E+03   -0.43938E-06    0.27881E-06
    2260   -0.3145901060E+03   -0.99599E-06    0.83688E-05
     -  10 steepest descent iterations performed
    2270   -0.3145901193E+03   -0.27567E-06    0.33951E-06
    2280   -0.3145901226E+03   -0.40915E-06    0.41721E-06
     -  10 steepest descent iterations performed
    2290   -0.3145901282E+03   -0.52905E-06    0.64126E-06
     -  10 steepest descent iterations performed
    2300   -0.3145901326E+03   -0.31661E-06    0.36524E-06
    2310   -0.3145901560E+03   -0.16680E-05    0.41319E-04
     -  10 steepest descent iterations performed
    2320   -0.3145901768E+03   -0.83736E-06    0.22131E-06
    2330   -0.3145901798E+03   -0.22224E-06    0.10904E-06
    2340   -0.3145901845E+03   -0.99585E-06    0.17693E-05
     -  10 steepest descent iterations performed
    2350   -0.3145901901E+03   -0.22280E-06    0.14576E-06
    2360   -0.3145901945E+03   -0.44304E-06    0.14187E-05
     -  10 steepest descent iterations performed
    2370   -0.3145901997E+03   -0.34203E-06    0.22356E-06
    2380   -0.3145902030E+03   -0.53862E-06    0.78688E-06
     -  10 steepest descent iterations performed
    2390   -0.3145902077E+03   -0.32674E-06    0.28492E-06
    2400   -0.3145902108E+03   -0.26873E-06    0.76775E-06
    2410   -0.3145902281E+03   -0.15780E-05    0.34599E-04
     -  10 steepest descent iterations performed
    2420   -0.3145902446E+03   -0.29383E-06    0.12055E-06
    2430   -0.3145902468E+03   -0.22571E-06    0.11903E-06
    2440   -0.3145902489E+03   -0.23453E-06    0.37406E-06
     -  10 steepest descent iterations performed
    2450   -0.3145902520E+03   -0.18304E-06    0.21622E-06
    2460   -0.3145902547E+03   -0.31457E-06    0.80176E-06
     -  10 steepest descent iterations performed
    2470   -0.3145902584E+03   -0.28749E-06    0.18229E-06
    2480   -0.3145902601E+03   -0.16094E-06    0.24849E-06
    2490   -0.3145902742E+03   -0.12719E-05    0.34091E-04
     -  10 steepest descent iterations performed
    2500   -0.3145902871E+03   -0.19947E-06    0.74717E-07
    2510   -0.3145902885E+03   -0.14233E-06    0.73163E-07
    2520   -0.3145902904E+03   -0.12239E-06    0.45996E-06
    2530   -0.3145903006E+03   -0.25292E-05    0.23173E-04
     -  10 steepest descent iterations performed
    2540   -0.3145903104E+03   -0.13512E-06    0.53018E-07
    2550   -0.3145903119E+03   -0.88840E-07    0.71875E-07
  *** tolerance ok.    iteration terminated.
     >>>  ITERATION ENDED   AT Fri Mar 15 20:22:18 2013  <<<


          =============  summary of results  =================

 number of electrons: spin up=   46.00000  down=   44.00000 (real space)

 total     energy    :  -0.3145903119E+03 (   -0.44941E+02/ion)
 total orbital energy:  -0.2306644071E+02 (   -0.25629E+00/electron)
 hartree   energy    :   0.1627776782E+04 (    0.18086E+02/electron)
 exc-corr  energy    :  -0.4459576572E+02 (   -0.49551E+00/electron)
 ion-ion   energy    :   0.1322766309E+04 (    0.18897E+03/ion)

 K.S. kinetic energy :   0.1765242198E+03 (    0.19614E+01/electron)
 K.S. V_l  energy    :  -0.4167773606E+03 (   -0.46309E+01/electron)
 K.S. V_nl energy    :  -0.6673928746E+02 (   -0.74155E+00/electron)
 K.S. V_Hart energy  :   0.3255553565E+04 (    0.36173E+02/electron)
 K.S. V_xc energy    :  -0.5808236802E+02 (   -0.64536E+00/electron)
 K.S. V_so energy    :   0.0000000000E+00 (    0.00000E+00/electron)
 Virial Coefficient  :   0.1537440331E+02

 Brillouin zone point:      1
    weight=  0.125000
    k     =<   0.375   0.375   0.000> . <b1,b2,b3> 
          =<   0.362   0.362  -0.000>

 orbital energies:
     0.3116377E+00 (   8.480eV) occ=1.000
     0.3046037E+00 (   8.289eV) occ=1.000
     0.2999637E+00 (   8.162eV) occ=1.000     0.3161916E+00 (   8.604eV) occ=1.000
     0.2962865E+00 (   8.062eV) occ=1.000     0.3099312E+00 (   8.434eV) occ=1.000
     0.2924857E+00 (   7.959eV) occ=1.000     0.3011230E+00 (   8.194eV) occ=1.000
     0.2839687E+00 (   7.727eV) occ=1.000     0.2885097E+00 (   7.851eV) occ=1.000
     0.2803753E+00 (   7.629eV) occ=1.000     0.2819408E+00 (   7.672eV) occ=1.000
     0.2793404E+00 (   7.601eV) occ=1.000     0.2804034E+00 (   7.630eV) occ=1.000
     0.2768438E+00 (   7.533eV) occ=1.000     0.2794499E+00 (   7.604eV) occ=1.000
     0.2748083E+00 (   7.478eV) occ=1.000     0.2786380E+00 (   7.582eV) occ=1.000
     0.2693988E+00 (   7.331eV) occ=1.000     0.2758003E+00 (   7.505eV) occ=1.000
     0.2671914E+00 (   7.271eV) occ=1.000     0.2721613E+00 (   7.406eV) occ=1.000
     0.2610691E+00 (   7.104eV) occ=1.000     0.2685170E+00 (   7.307eV) occ=1.000
     0.2562137E+00 (   6.972eV) occ=1.000     0.2576661E+00 (   7.012eV) occ=1.000
     0.2496399E+00 (   6.793eV) occ=1.000     0.2486151E+00 (   6.765eV) occ=1.000
     0.2433435E+00 (   6.622eV) occ=1.000     0.2440514E+00 (   6.641eV) occ=1.000
     0.2307032E+00 (   6.278eV) occ=1.000     0.2374560E+00 (   6.462eV) occ=1.000
     0.2131034E+00 (   5.799eV) occ=1.000     0.2193356E+00 (   5.968eV) occ=1.000
     0.2029552E+00 (   5.523eV) occ=1.000     0.2066120E+00 (   5.622eV) occ=1.000
    -0.1406540E+00 (  -3.827eV) occ=1.000    -0.1408808E+00 (  -3.834eV) occ=1.000
    -0.1675547E+00 (  -4.559eV) occ=1.000    -0.1782182E+00 (  -4.850eV) occ=1.000
    -0.1806008E+00 (  -4.914eV) occ=1.000    -0.1897881E+00 (  -5.164eV) occ=1.000
    -0.2690576E+00 (  -7.321eV) occ=1.000    -0.2704118E+00 (  -7.358eV) occ=1.000
    -0.2703263E+00 (  -7.356eV) occ=1.000    -0.2771774E+00 (  -7.542eV) occ=1.000
    -0.3233824E+00 (  -8.800eV) occ=1.000    -0.2939424E+00 (  -7.999eV) occ=1.000
    -0.3405344E+00 (  -9.266eV) occ=1.000    -0.3144114E+00 (  -8.556eV) occ=1.000
    -0.3485795E+00 (  -9.485eV) occ=1.000    -0.3260803E+00 (  -8.873eV) occ=1.000
    -0.3501836E+00 (  -9.529eV) occ=1.000    -0.3378846E+00 (  -9.194eV) occ=1.000
    -0.3684232E+00 ( -10.025eV) occ=1.000    -0.3617175E+00 (  -9.843eV) occ=1.000
    -0.3863062E+00 ( -10.512eV) occ=1.000    -0.3890131E+00 ( -10.586eV) occ=1.000
    -0.4110994E+00 ( -11.187eV) occ=1.000    -0.3997706E+00 ( -10.878eV) occ=1.000
    -0.4117721E+00 ( -11.205eV) occ=1.000    -0.4087981E+00 ( -11.124eV) occ=1.000
    -0.4216383E+00 ( -11.473eV) occ=1.000    -0.4166788E+00 ( -11.338eV) occ=1.000
    -0.4504619E+00 ( -12.258eV) occ=1.000    -0.4404898E+00 ( -11.986eV) occ=1.000
    -0.4508693E+00 ( -12.269eV) occ=1.000    -0.4566282E+00 ( -12.426eV) occ=1.000
    -0.4734199E+00 ( -12.883eV) occ=1.000    -0.4790748E+00 ( -13.036eV) occ=1.000
    -0.4824785E+00 ( -13.129eV) occ=1.000    -0.4873318E+00 ( -13.261eV) occ=1.000
    -0.6214241E+00 ( -16.910eV) occ=1.000    -0.6198121E+00 ( -16.866eV) occ=1.000
    -0.9027673E+00 ( -24.566eV) occ=1.000    -0.8955136E+00 ( -24.368eV) occ=1.000
    -0.9033275E+00 ( -24.581eV) occ=1.000    -0.8959301E+00 ( -24.380eV) occ=1.000
    -0.1217065E+01 ( -33.118eV) occ=1.000    -0.1212065E+01 ( -32.982eV) occ=1.000
    -0.1218046E+01 ( -33.145eV) occ=1.000    -0.1216311E+01 ( -33.098eV) occ=1.000
    -0.1281239E+01 ( -34.865eV) occ=1.000    -0.1242224E+01 ( -33.803eV) occ=1.000
    -0.1285068E+01 ( -34.969eV) occ=1.000    -0.1280633E+01 ( -34.848eV) occ=1.000
    -0.1286839E+01 ( -35.017eV) occ=1.000    -0.1287026E+01 ( -35.022eV) occ=1.000
    -0.1388082E+01 ( -37.772eV) occ=1.000    -0.1378266E+01 ( -37.505eV) occ=1.000

 Brillouin zone point:      2
    weight=  0.125000
    k     =<   0.125   0.375   0.000> . <b1,b2,b3> 
          =<   0.121   0.362  -0.000>

 orbital energies:
     0.3008359E+00 (   8.186eV) occ=1.000
     0.2932138E+00 (   7.979eV) occ=1.000
     0.2866909E+00 (   7.801eV) occ=1.000     0.3026376E+00 (   8.235eV) occ=1.000
     0.2855968E+00 (   7.772eV) occ=1.000     0.2962120E+00 (   8.060eV) occ=1.000
     0.2822721E+00 (   7.681eV) occ=1.000     0.2883881E+00 (   7.848eV) occ=1.000
     0.2800092E+00 (   7.619eV) occ=1.000     0.2845259E+00 (   7.742eV) occ=1.000
     0.2737291E+00 (   7.449eV) occ=1.000     0.2817637E+00 (   7.667eV) occ=1.000
     0.2727736E+00 (   7.423eV) occ=1.000     0.2771098E+00 (   7.541eV) occ=1.000
     0.2631170E+00 (   7.160eV) occ=1.000     0.2667059E+00 (   7.257eV) occ=1.000
     0.2589015E+00 (   7.045eV) occ=1.000     0.2612308E+00 (   7.109eV) occ=1.000
     0.2560915E+00 (   6.969eV) occ=1.000     0.2590652E+00 (   7.050eV) occ=1.000
     0.2512950E+00 (   6.838eV) occ=1.000     0.2559866E+00 (   6.966eV) occ=1.000
     0.2475230E+00 (   6.735eV) occ=1.000     0.2527437E+00 (   6.878eV) occ=1.000
     0.2377387E+00 (   6.469eV) occ=1.000     0.2432319E+00 (   6.619eV) occ=1.000
     0.2250765E+00 (   6.125eV) occ=1.000     0.2318039E+00 (   6.308eV) occ=1.000
     0.2101496E+00 (   5.719eV) occ=1.000     0.2162209E+00 (   5.884eV) occ=1.000
     0.2057374E+00 (   5.598eV) occ=1.000     0.2052024E+00 (   5.584eV) occ=1.000
     0.2024213E+00 (   5.508eV) occ=1.000     0.2026937E+00 (   5.516eV) occ=1.000
     0.1828060E+00 (   4.974eV) occ=1.000     0.1794689E+00 (   4.884eV) occ=1.000
    -0.1286793E+00 (  -3.502eV) occ=1.000    -0.1296903E+00 (  -3.529eV) occ=1.000
    -0.1746794E+00 (  -4.753eV) occ=1.000    -0.1830918E+00 (  -4.982eV) occ=1.000
    -0.1863015E+00 (  -5.070eV) occ=1.000    -0.1953036E+00 (  -5.315eV) occ=1.000
    -0.2702709E+00 (  -7.355eV) occ=1.000    -0.2764725E+00 (  -7.523eV) occ=1.000
    -0.2863922E+00 (  -7.793eV) occ=1.000    -0.2832172E+00 (  -7.707eV) occ=1.000
    -0.3126354E+00 (  -8.507eV) occ=1.000    -0.2871121E+00 (  -7.813eV) occ=1.000
    -0.3256491E+00 (  -8.861eV) occ=1.000    -0.3038730E+00 (  -8.269eV) occ=1.000
    -0.3273965E+00 (  -8.909eV) occ=1.000    -0.3107713E+00 (  -8.457eV) occ=1.000
    -0.3471979E+00 (  -9.448eV) occ=1.000    -0.3344907E+00 (  -9.102eV) occ=1.000
    -0.3596186E+00 (  -9.786eV) occ=1.000    -0.3400617E+00 (  -9.254eV) occ=1.000
    -0.3643503E+00 (  -9.915eV) occ=1.000    -0.3683496E+00 ( -10.023eV) occ=1.000
    -0.3741699E+00 ( -10.182eV) occ=1.000    -0.3815400E+00 ( -10.382eV) occ=1.000
    -0.3949239E+00 ( -10.747eV) occ=1.000    -0.3948845E+00 ( -10.745eV) occ=1.000
    -0.4048573E+00 ( -11.017eV) occ=1.000    -0.4125729E+00 ( -11.227eV) occ=1.000
    -0.4298918E+00 ( -11.698eV) occ=1.000    -0.4215533E+00 ( -11.471eV) occ=1.000
    -0.4462705E+00 ( -12.144eV) occ=1.000    -0.4339462E+00 ( -11.808eV) occ=1.000
    -0.4540711E+00 ( -12.356eV) occ=1.000    -0.4481909E+00 ( -12.196eV) occ=1.000
    -0.4688900E+00 ( -12.759eV) occ=1.000    -0.4710263E+00 ( -12.817eV) occ=1.000
    -0.6290236E+00 ( -17.117eV) occ=1.000    -0.6291940E+00 ( -17.121eV) occ=1.000
    -0.9010291E+00 ( -24.518eV) occ=1.000    -0.8937075E+00 ( -24.319eV) occ=1.000
    -0.9026032E+00 ( -24.561eV) occ=1.000    -0.8953108E+00 ( -24.363eV) occ=1.000
    -0.1219140E+01 ( -33.175eV) occ=1.000    -0.1211430E+01 ( -32.965eV) occ=1.000
    -0.1219547E+01 ( -33.186eV) occ=1.000    -0.1221441E+01 ( -33.237eV) occ=1.000
    -0.1281069E+01 ( -34.860eV) occ=1.000    -0.1242115E+01 ( -33.800eV) occ=1.000
    -0.1288507E+01 ( -35.062eV) occ=1.000    -0.1285704E+01 ( -34.986eV) occ=1.000
    -0.1291627E+01 ( -35.147eV) occ=1.000    -0.1289004E+01 ( -35.076eV) occ=1.000
    -0.1389845E+01 ( -37.820eV) occ=1.000    -0.1380351E+01 ( -37.562eV) occ=1.000

 Brillouin zone point:      3
    weight=  0.125000
    k     =<  -0.125   0.375   0.000> . <b1,b2,b3> 
          =<  -0.121   0.362  -0.000>

 orbital energies:
     0.2988622E+00 (   8.133eV) occ=1.000
     0.2940901E+00 (   8.003eV) occ=1.000
     0.2900254E+00 (   7.892eV) occ=1.000     0.3049734E+00 (   8.299eV) occ=1.000
     0.2851220E+00 (   7.759eV) occ=1.000     0.3015867E+00 (   8.207eV) occ=1.000
     0.2820968E+00 (   7.676eV) occ=1.000     0.2881962E+00 (   7.842eV) occ=1.000
     0.2787353E+00 (   7.585eV) occ=1.000     0.2867866E+00 (   7.804eV) occ=1.000
     0.2738501E+00 (   7.452eV) occ=1.000     0.2809172E+00 (   7.644eV) occ=1.000
     0.2728331E+00 (   7.424eV) occ=1.000     0.2753460E+00 (   7.493eV) occ=1.000
     0.2627168E+00 (   7.149eV) occ=1.000     0.2654016E+00 (   7.222eV) occ=1.000
     0.2581104E+00 (   7.024eV) occ=1.000     0.2611565E+00 (   7.106eV) occ=1.000
     0.2579689E+00 (   7.020eV) occ=1.000     0.2580791E+00 (   7.023eV) occ=1.000
     0.2515827E+00 (   6.846eV) occ=1.000     0.2561347E+00 (   6.970eV) occ=1.000
     0.2471155E+00 (   6.724eV) occ=1.000     0.2530025E+00 (   6.885eV) occ=1.000
     0.2380529E+00 (   6.478eV) occ=1.000     0.2432550E+00 (   6.619eV) occ=1.000
     0.2254057E+00 (   6.134eV) occ=1.000     0.2318978E+00 (   6.310eV) occ=1.000
     0.2101402E+00 (   5.718eV) occ=1.000     0.2160641E+00 (   5.879eV) occ=1.000
     0.2055259E+00 (   5.593eV) occ=1.000     0.2048491E+00 (   5.574eV) occ=1.000
     0.2028062E+00 (   5.519eV) occ=1.000     0.2026945E+00 (   5.516eV) occ=1.000
     0.1828944E+00 (   4.977eV) occ=1.000     0.1794106E+00 (   4.882eV) occ=1.000
    -0.1286709E+00 (  -3.501eV) occ=1.000    -0.1296825E+00 (  -3.529eV) occ=1.000
    -0.1743145E+00 (  -4.743eV) occ=1.000    -0.1832585E+00 (  -4.987eV) occ=1.000
    -0.1866822E+00 (  -5.080eV) occ=1.000    -0.1951659E+00 (  -5.311eV) occ=1.000
    -0.2705602E+00 (  -7.362eV) occ=1.000    -0.2775867E+00 (  -7.554eV) occ=1.000
    -0.2862770E+00 (  -7.790eV) occ=1.000    -0.2826285E+00 (  -7.691eV) occ=1.000
    -0.3126451E+00 (  -8.508eV) occ=1.000    -0.2874725E+00 (  -7.823eV) occ=1.000
    -0.3256080E+00 (  -8.860eV) occ=1.000    -0.3031809E+00 (  -8.250eV) occ=1.000
    -0.3274369E+00 (  -8.910eV) occ=1.000    -0.3111292E+00 (  -8.466eV) occ=1.000
    -0.3472022E+00 (  -9.448eV) occ=1.000    -0.3350689E+00 (  -9.118eV) occ=1.000
    -0.3595637E+00 (  -9.784eV) occ=1.000    -0.3393242E+00 (  -9.234eV) occ=1.000
    -0.3643498E+00 (  -9.915eV) occ=1.000    -0.3679916E+00 ( -10.014eV) occ=1.000
    -0.3741061E+00 ( -10.180eV) occ=1.000    -0.3811465E+00 ( -10.372eV) occ=1.000
    -0.3947648E+00 ( -10.742eV) occ=1.000    -0.3946517E+00 ( -10.739eV) occ=1.000
    -0.4048341E+00 ( -11.016eV) occ=1.000    -0.4129397E+00 ( -11.237eV) occ=1.000
    -0.4295628E+00 ( -11.689eV) occ=1.000    -0.4215200E+00 ( -11.470eV) occ=1.000
    -0.4465316E+00 ( -12.151eV) occ=1.000    -0.4340809E+00 ( -11.812eV) occ=1.000
    -0.4539568E+00 ( -12.353eV) occ=1.000    -0.4477809E+00 ( -12.185eV) occ=1.000
    -0.4692064E+00 ( -12.768eV) occ=1.000    -0.4715954E+00 ( -12.833eV) occ=1.000
    -0.6290218E+00 ( -17.117eV) occ=1.000    -0.6291893E+00 ( -17.121eV) occ=1.000
    -0.9010742E+00 ( -24.520eV) occ=1.000    -0.8937228E+00 ( -24.320eV) occ=1.000
    -0.9025576E+00 ( -24.560eV) occ=1.000    -0.8952966E+00 ( -24.362eV) occ=1.000
    -0.1219127E+01 ( -33.174eV) occ=1.000    -0.1211436E+01 ( -32.965eV) occ=1.000
    -0.1219548E+01 ( -33.186eV) occ=1.000    -0.1221436E+01 ( -33.237eV) occ=1.000
    -0.1281070E+01 ( -34.860eV) occ=1.000    -0.1242101E+01 ( -33.800eV) occ=1.000
    -0.1288514E+01 ( -35.063eV) occ=1.000    -0.1285714E+01 ( -34.986eV) occ=1.000
    -0.1291629E+01 ( -35.147eV) occ=1.000    -0.1289004E+01 ( -35.076eV) occ=1.000
    -0.1389845E+01 ( -37.820eV) occ=1.000    -0.1380351E+01 ( -37.562eV) occ=1.000

 Brillouin zone point:      4
    weight=  0.125000
    k     =<   0.375  -0.375   0.000> . <b1,b2,b3> 
          =<   0.362  -0.362  -0.000>

 orbital energies:
     0.3085923E+00 (   8.397eV) occ=1.000
     0.3039679E+00 (   8.271eV) occ=1.000
     0.3028420E+00 (   8.241eV) occ=1.000     0.3166732E+00 (   8.617eV) occ=1.000
     0.2980479E+00 (   8.110eV) occ=1.000     0.3102816E+00 (   8.443eV) occ=1.000
     0.2915069E+00 (   7.932eV) occ=1.000     0.2971309E+00 (   8.085eV) occ=1.000
     0.2852737E+00 (   7.763eV) occ=1.000     0.2917540E+00 (   7.939eV) occ=1.000
     0.2838131E+00 (   7.723eV) occ=1.000     0.2835455E+00 (   7.716eV) occ=1.000
     0.2792647E+00 (   7.599eV) occ=1.000     0.2818287E+00 (   7.669eV) occ=1.000
     0.2752421E+00 (   7.490eV) occ=1.000     0.2809054E+00 (   7.644eV) occ=1.000
     0.2736703E+00 (   7.447eV) occ=1.000     0.2772635E+00 (   7.545eV) occ=1.000
     0.2679225E+00 (   7.291eV) occ=1.000     0.2762648E+00 (   7.518eV) occ=1.000
     0.2646994E+00 (   7.203eV) occ=1.000     0.2734527E+00 (   7.441eV) occ=1.000
     0.2630506E+00 (   7.158eV) occ=1.000     0.2665743E+00 (   7.254eV) occ=1.000
     0.2603443E+00 (   7.084eV) occ=1.000     0.2569161E+00 (   6.991eV) occ=1.000
     0.2497633E+00 (   6.796eV) occ=1.000     0.2481845E+00 (   6.753eV) occ=1.000
     0.2420257E+00 (   6.586eV) occ=1.000     0.2435052E+00 (   6.626eV) occ=1.000
     0.2307245E+00 (   6.278eV) occ=1.000     0.2376616E+00 (   6.467eV) occ=1.000
     0.2133209E+00 (   5.805eV) occ=1.000     0.2188026E+00 (   5.954eV) occ=1.000
     0.2028641E+00 (   5.520eV) occ=1.000     0.2069207E+00 (   5.631eV) occ=1.000
    -0.1407282E+00 (  -3.829eV) occ=1.000    -0.1408534E+00 (  -3.833eV) occ=1.000
    -0.1671467E+00 (  -4.548eV) occ=1.000    -0.1784341E+00 (  -4.855eV) occ=1.000
    -0.1809532E+00 (  -4.924eV) occ=1.000    -0.1895768E+00 (  -5.159eV) occ=1.000
    -0.2692144E+00 (  -7.326eV) occ=1.000    -0.2717926E+00 (  -7.396eV) occ=1.000
    -0.2702637E+00 (  -7.354eV) occ=1.000    -0.2758184E+00 (  -7.505eV) occ=1.000
    -0.3233698E+00 (  -8.799eV) occ=1.000    -0.2941954E+00 (  -8.006eV) occ=1.000
    -0.3404976E+00 (  -9.265eV) occ=1.000    -0.3143194E+00 (  -8.553eV) occ=1.000
    -0.3485847E+00 (  -9.486eV) occ=1.000    -0.3262589E+00 (  -8.878eV) occ=1.000
    -0.3502491E+00 (  -9.531eV) occ=1.000    -0.3380943E+00 (  -9.200eV) occ=1.000
    -0.3684623E+00 ( -10.026eV) occ=1.000    -0.3616101E+00 (  -9.840eV) occ=1.000
    -0.3862784E+00 ( -10.511eV) occ=1.000    -0.3888501E+00 ( -10.581eV) occ=1.000
    -0.4110233E+00 ( -11.185eV) occ=1.000    -0.3991633E+00 ( -10.862eV) occ=1.000
    -0.4117471E+00 ( -11.204eV) occ=1.000    -0.4085813E+00 ( -11.118eV) occ=1.000
    -0.4214729E+00 ( -11.469eV) occ=1.000    -0.4170616E+00 ( -11.349eV) occ=1.000
    -0.4504150E+00 ( -12.257eV) occ=1.000    -0.4404590E+00 ( -11.986eV) occ=1.000
    -0.4510302E+00 ( -12.273eV) occ=1.000    -0.4566766E+00 ( -12.427eV) occ=1.000
    -0.4723720E+00 ( -12.854eV) occ=1.000    -0.4779938E+00 ( -13.007eV) occ=1.000
    -0.4835636E+00 ( -13.159eV) occ=1.000    -0.4885968E+00 ( -13.296eV) occ=1.000
    -0.6214213E+00 ( -16.910eV) occ=1.000    -0.6198066E+00 ( -16.866eV) occ=1.000
    -0.9029787E+00 ( -24.571eV) occ=1.000    -0.8955800E+00 ( -24.370eV) occ=1.000
    -0.9031157E+00 ( -24.575eV) occ=1.000    -0.8958648E+00 ( -24.378eV) occ=1.000
    -0.1217065E+01 ( -33.118eV) occ=1.000    -0.1212080E+01 ( -32.983eV) occ=1.000
    -0.1218032E+01 ( -33.145eV) occ=1.000    -0.1216297E+01 ( -33.097eV) occ=1.000
    -0.1281240E+01 ( -34.865eV) occ=1.000    -0.1242207E+01 ( -33.802eV) occ=1.000
    -0.1285073E+01 ( -34.969eV) occ=1.000    -0.1280646E+01 ( -34.848eV) occ=1.000
    -0.1286842E+01 ( -35.017eV) occ=1.000    -0.1287026E+01 ( -35.022eV) occ=1.000
    -0.1388082E+01 ( -37.772eV) occ=1.000    -0.1378267E+01 ( -37.505eV) occ=1.000

 Brillouin zone point:      5
    weight=  0.125000
    k     =<   0.375   0.125   0.000> . <b1,b2,b3> 
          =<   0.362   0.121  -0.000>

 orbital energies:
     0.3020944E+00 (   8.220eV) occ=1.000
     0.2939591E+00 (   7.999eV) occ=1.000
     0.2891278E+00 (   7.868eV) occ=1.000     0.3030014E+00 (   8.245eV) occ=1.000
     0.2859508E+00 (   7.781eV) occ=1.000     0.3007692E+00 (   8.184eV) occ=1.000
     0.2803602E+00 (   7.629eV) occ=1.000     0.2890093E+00 (   7.864eV) occ=1.000
     0.2789962E+00 (   7.592eV) occ=1.000     0.2837144E+00 (   7.720eV) occ=1.000
     0.2751340E+00 (   7.487eV) occ=1.000     0.2826256E+00 (   7.691eV) occ=1.000
     0.2727970E+00 (   7.423eV) occ=1.000     0.2771923E+00 (   7.543eV) occ=1.000
     0.2656421E+00 (   7.229eV) occ=1.000     0.2663307E+00 (   7.247eV) occ=1.000
     0.2593575E+00 (   7.058eV) occ=1.000     0.2619109E+00 (   7.127eV) occ=1.000
     0.2570367E+00 (   6.994eV) occ=1.000     0.2594069E+00 (   7.059eV) occ=1.000
     0.2515851E+00 (   6.846eV) occ=1.000     0.2558976E+00 (   6.963eV) occ=1.000
     0.2478672E+00 (   6.745eV) occ=1.000     0.2526718E+00 (   6.876eV) occ=1.000
     0.2395627E+00 (   6.519eV) occ=1.000     0.2424153E+00 (   6.597eV) occ=1.000
     0.2250487E+00 (   6.124eV) occ=1.000     0.2315757E+00 (   6.302eV) occ=1.000
     0.2098821E+00 (   5.711eV) occ=1.000     0.2161769E+00 (   5.883eV) occ=1.000
     0.2058817E+00 (   5.602eV) occ=1.000     0.2046513E+00 (   5.569eV) occ=1.000
     0.2028130E+00 (   5.519eV) occ=1.000     0.2028627E+00 (   5.520eV) occ=1.000
     0.1830395E+00 (   4.981eV) occ=1.000     0.1798182E+00 (   4.893eV) occ=1.000
    -0.1285245E+00 (  -3.497eV) occ=1.000    -0.1296620E+00 (  -3.528eV) occ=1.000
    -0.1747901E+00 (  -4.756eV) occ=1.000    -0.1829636E+00 (  -4.979eV) occ=1.000
    -0.1862013E+00 (  -5.067eV) occ=1.000    -0.1954992E+00 (  -5.320eV) occ=1.000
    -0.2703084E+00 (  -7.356eV) occ=1.000    -0.2761140E+00 (  -7.514eV) occ=1.000
    -0.2860179E+00 (  -7.783eV) occ=1.000    -0.2826741E+00 (  -7.692eV) occ=1.000
    -0.3128869E+00 (  -8.514eV) occ=1.000    -0.2877338E+00 (  -7.830eV) occ=1.000
    -0.3254319E+00 (  -8.856eV) occ=1.000    -0.3042683E+00 (  -8.280eV) occ=1.000
    -0.3279694E+00 (  -8.925eV) occ=1.000    -0.3112052E+00 (  -8.468eV) occ=1.000
    -0.3471625E+00 (  -9.447eV) occ=1.000    -0.3350384E+00 (  -9.117eV) occ=1.000
    -0.3600029E+00 (  -9.796eV) occ=1.000    -0.3406963E+00 (  -9.271eV) occ=1.000
    -0.3643967E+00 (  -9.916eV) occ=1.000    -0.3680227E+00 ( -10.014eV) occ=1.000
    -0.3743645E+00 ( -10.187eV) occ=1.000    -0.3811049E+00 ( -10.370eV) occ=1.000
    -0.3949071E+00 ( -10.746eV) occ=1.000    -0.3949089E+00 ( -10.746eV) occ=1.000
    -0.4045915E+00 ( -11.010eV) occ=1.000    -0.4121383E+00 ( -11.215eV) occ=1.000
    -0.4298154E+00 ( -11.696eV) occ=1.000    -0.4213693E+00 ( -11.466eV) occ=1.000
    -0.4463412E+00 ( -12.146eV) occ=1.000    -0.4338092E+00 ( -11.805eV) occ=1.000
    -0.4538087E+00 ( -12.349eV) occ=1.000    -0.4480990E+00 ( -12.193eV) occ=1.000
    -0.4687875E+00 ( -12.756eV) occ=1.000    -0.4710708E+00 ( -12.819eV) occ=1.000
    -0.6289643E+00 ( -17.115eV) occ=1.000    -0.6291491E+00 ( -17.120eV) occ=1.000
    -0.9010831E+00 ( -24.520eV) occ=1.000    -0.8937848E+00 ( -24.321eV) occ=1.000
    -0.9025516E+00 ( -24.560eV) occ=1.000    -0.8952383E+00 ( -24.361eV) occ=1.000
    -0.1219142E+01 ( -33.175eV) occ=1.000    -0.1211437E+01 ( -32.965eV) occ=1.000
    -0.1219555E+01 ( -33.186eV) occ=1.000    -0.1221448E+01 ( -33.238eV) occ=1.000
    -0.1281073E+01 ( -34.860eV) occ=1.000    -0.1242117E+01 ( -33.800eV) occ=1.000
    -0.1288505E+01 ( -35.062eV) occ=1.000    -0.1285703E+01 ( -34.986eV) occ=1.000
    -0.1291628E+01 ( -35.147eV) occ=1.000    -0.1289011E+01 ( -35.076eV) occ=1.000
    -0.1389842E+01 ( -37.820eV) occ=1.000    -0.1380347E+01 ( -37.561eV) occ=1.000

 Brillouin zone point:      6
    weight=  0.125000
    k     =<   0.125   0.125   0.000> . <b1,b2,b3> 
          =<   0.121   0.121  -0.000>

 orbital energies:
     0.2939919E+00 (   8.000eV) occ=1.000
     0.2906703E+00 (   7.910eV) occ=1.000
     0.2882280E+00 (   7.843eV) occ=1.000     0.2872530E+00 (   7.817eV) occ=1.000
     0.2835039E+00 (   7.715eV) occ=1.000     0.2862639E+00 (   7.790eV) occ=1.000
     0.2785704E+00 (   7.580eV) occ=1.000     0.2815431E+00 (   7.661eV) occ=1.000
     0.2734820E+00 (   7.442eV) occ=1.000     0.2740918E+00 (   7.458eV) occ=1.000
     0.2688030E+00 (   7.315eV) occ=1.000     0.2693102E+00 (   7.328eV) occ=1.000
     0.2611083E+00 (   7.105eV) occ=1.000     0.2663888E+00 (   7.249eV) occ=1.000
     0.2588343E+00 (   7.043eV) occ=1.000     0.2593571E+00 (   7.058eV) occ=1.000
     0.2537713E+00 (   6.906eV) occ=1.000     0.2548576E+00 (   6.935eV) occ=1.000
     0.2506458E+00 (   6.820eV) occ=1.000     0.2523140E+00 (   6.866eV) occ=1.000
     0.2435282E+00 (   6.627eV) occ=1.000     0.2484616E+00 (   6.761eV) occ=1.000
     0.2428429E+00 (   6.608eV) occ=1.000     0.2430781E+00 (   6.615eV) occ=1.000
     0.2089248E+00 (   5.685eV) occ=1.000     0.2199391E+00 (   5.985eV) occ=1.000
     0.2053563E+00 (   5.588eV) occ=1.000     0.2179657E+00 (   5.931eV) occ=1.000
     0.1986477E+00 (   5.406eV) occ=1.000     0.2105778E+00 (   5.730eV) occ=1.000
     0.1753778E+00 (   4.772eV) occ=1.000     0.1656564E+00 (   4.508eV) occ=1.000
     0.1625993E+00 (   4.425eV) occ=1.000     0.1636484E+00 (   4.453eV) occ=1.000
     0.1618657E+00 (   4.405eV) occ=1.000     0.1566538E+00 (   4.263eV) occ=1.000
    -0.1389346E+00 (  -3.781eV) occ=1.000    -0.1395816E+00 (  -3.798eV) occ=1.000
    -0.1484774E+00 (  -4.040eV) occ=1.000    -0.1583007E+00 (  -4.308eV) occ=1.000
    -0.1691417E+00 (  -4.603eV) occ=1.000    -0.1759688E+00 (  -4.788eV) occ=1.000
    -0.2617245E+00 (  -7.122eV) occ=1.000    -0.2636784E+00 (  -7.175eV) occ=1.000
    -0.2786725E+00 (  -7.583eV) occ=1.000    -0.2741248E+00 (  -7.459eV) occ=1.000
    -0.3024889E+00 (  -8.231eV) occ=1.000    -0.2877588E+00 (  -7.830eV) occ=1.000
    -0.3232485E+00 (  -8.796eV) occ=1.000    -0.2904651E+00 (  -7.904eV) occ=1.000
    -0.3271184E+00 (  -8.901eV) occ=1.000    -0.3030112E+00 (  -8.245eV) occ=1.000
    -0.3290205E+00 (  -8.953eV) occ=1.000    -0.3277020E+00 (  -8.917eV) occ=1.000
    -0.3591474E+00 (  -9.773eV) occ=1.000    -0.3576008E+00 (  -9.731eV) occ=1.000
    -0.3677663E+00 ( -10.008eV) occ=1.000    -0.3590994E+00 (  -9.772eV) occ=1.000
    -0.3699255E+00 ( -10.066eV) occ=1.000    -0.3702743E+00 ( -10.076eV) occ=1.000
    -0.4011152E+00 ( -10.915eV) occ=1.000    -0.3892753E+00 ( -10.593eV) occ=1.000
    -0.4083272E+00 ( -11.111eV) occ=1.000    -0.4088847E+00 ( -11.126eV) occ=1.000
    -0.4093009E+00 ( -11.138eV) occ=1.000    -0.4128612E+00 ( -11.235eV) occ=1.000
    -0.4257097E+00 ( -11.584eV) occ=1.000    -0.4210967E+00 ( -11.459eV) occ=1.000
    -0.4354646E+00 ( -11.850eV) occ=1.000    -0.4385368E+00 ( -11.933eV) occ=1.000
    -0.4434088E+00 ( -12.066eV) occ=1.000    -0.4400579E+00 ( -11.975eV) occ=1.000
    -0.6227576E+00 ( -16.946eV) occ=1.000    -0.6216973E+00 ( -16.917eV) occ=1.000
    -0.9009906E+00 ( -24.517eV) occ=1.000    -0.8937757E+00 ( -24.321eV) occ=1.000
    -0.9015197E+00 ( -24.532eV) occ=1.000    -0.8941689E+00 ( -24.332eV) occ=1.000
    -0.1212168E+01 ( -32.985eV) occ=1.000    -0.1206097E+01 ( -32.820eV) occ=1.000
    -0.1219200E+01 ( -33.176eV) occ=1.000    -0.1229247E+01 ( -33.450eV) occ=1.000
    -0.1277076E+01 ( -34.751eV) occ=1.000    -0.1232907E+01 ( -33.549eV) occ=1.000
    -0.1296389E+01 ( -35.277eV) occ=1.000    -0.1287964E+01 ( -35.048eV) occ=1.000
    -0.1301181E+01 ( -35.407eV) occ=1.000    -0.1298290E+01 ( -35.329eV) occ=1.000
    -0.1392652E+01 ( -37.896eV) occ=1.000    -0.1384636E+01 ( -37.678eV) occ=1.000

 Brillouin zone point:      7
    weight=  0.125000
    k     =<   0.125  -0.125   0.000> . <b1,b2,b3> 
          =<   0.121  -0.121  -0.000>

 orbital energies:
     0.2938520E+00 (   7.996eV) occ=1.000
     0.2897217E+00 (   7.884eV) occ=1.000
     0.2872743E+00 (   7.817eV) occ=1.000     0.2892186E+00 (   7.870eV) occ=1.000
     0.2812047E+00 (   7.652eV) occ=1.000     0.2853253E+00 (   7.764eV) occ=1.000
     0.2747418E+00 (   7.476eV) occ=1.000     0.2809081E+00 (   7.644eV) occ=1.000
     0.2726255E+00 (   7.419eV) occ=1.000     0.2746395E+00 (   7.473eV) occ=1.000
     0.2703316E+00 (   7.356eV) occ=1.000     0.2683348E+00 (   7.302eV) occ=1.000
     0.2643780E+00 (   7.194eV) occ=1.000     0.2659316E+00 (   7.236eV) occ=1.000
     0.2605424E+00 (   7.090eV) occ=1.000     0.2586088E+00 (   7.037eV) occ=1.000
     0.2546139E+00 (   6.928eV) occ=1.000     0.2548544E+00 (   6.935eV) occ=1.000
     0.2495831E+00 (   6.792eV) occ=1.000     0.2529665E+00 (   6.884eV) occ=1.000
     0.2437990E+00 (   6.634eV) occ=1.000     0.2485416E+00 (   6.763eV) occ=1.000
     0.2428785E+00 (   6.609eV) occ=1.000     0.2433134E+00 (   6.621eV) occ=1.000
     0.2091662E+00 (   5.692eV) occ=1.000     0.2198986E+00 (   5.984eV) occ=1.000
     0.2054565E+00 (   5.591eV) occ=1.000     0.2177751E+00 (   5.926eV) occ=1.000
     0.1986597E+00 (   5.406eV) occ=1.000     0.2104988E+00 (   5.728eV) occ=1.000
     0.1754766E+00 (   4.775eV) occ=1.000     0.1655803E+00 (   4.506eV) occ=1.000
     0.1627040E+00 (   4.427eV) occ=1.000     0.1633233E+00 (   4.444eV) occ=1.000
     0.1617148E+00 (   4.401eV) occ=1.000     0.1567401E+00 (   4.265eV) occ=1.000
    -0.1390448E+00 (  -3.784eV) occ=1.000    -0.1395337E+00 (  -3.797eV) occ=1.000
    -0.1479566E+00 (  -4.026eV) occ=1.000    -0.1586056E+00 (  -4.316eV) occ=1.000
    -0.1695818E+00 (  -4.615eV) occ=1.000    -0.1757111E+00 (  -4.781eV) occ=1.000
    -0.2622973E+00 (  -7.138eV) occ=1.000    -0.2648702E+00 (  -7.208eV) occ=1.000
    -0.2782868E+00 (  -7.573eV) occ=1.000    -0.2738345E+00 (  -7.451eV) occ=1.000
    -0.3024491E+00 (  -8.230eV) occ=1.000    -0.2879226E+00 (  -7.835eV) occ=1.000
    -0.3232104E+00 (  -8.795eV) occ=1.000    -0.2908371E+00 (  -7.914eV) occ=1.000
    -0.3272108E+00 (  -8.904eV) occ=1.000    -0.3019911E+00 (  -8.218eV) occ=1.000
    -0.3289354E+00 (  -8.951eV) occ=1.000    -0.3279545E+00 (  -8.924eV) occ=1.000
    -0.3589835E+00 (  -9.769eV) occ=1.000    -0.3569673E+00 (  -9.714eV) occ=1.000
    -0.3678209E+00 ( -10.009eV) occ=1.000    -0.3591328E+00 (  -9.773eV) occ=1.000
    -0.3699564E+00 ( -10.067eV) occ=1.000    -0.3697687E+00 ( -10.062eV) occ=1.000
    -0.4008084E+00 ( -10.907eV) occ=1.000    -0.3891446E+00 ( -10.589eV) occ=1.000
    -0.4084052E+00 ( -11.113eV) occ=1.000    -0.4087851E+00 ( -11.124eV) occ=1.000
    -0.4087849E+00 ( -11.124eV) occ=1.000    -0.4129352E+00 ( -11.237eV) occ=1.000
    -0.4255110E+00 ( -11.579eV) occ=1.000    -0.4211181E+00 ( -11.459eV) occ=1.000
    -0.4366049E+00 ( -11.881eV) occ=1.000    -0.4376806E+00 ( -11.910eV) occ=1.000
    -0.4431703E+00 ( -12.059eV) occ=1.000    -0.4415671E+00 ( -12.016eV) occ=1.000
    -0.6227555E+00 ( -16.946eV) occ=1.000    -0.6216928E+00 ( -16.917eV) occ=1.000
    -0.9011975E+00 ( -24.523eV) occ=1.000    -0.8938449E+00 ( -24.323eV) occ=1.000
    -0.9013123E+00 ( -24.526eV) occ=1.000    -0.8941008E+00 ( -24.330eV) occ=1.000
    -0.1212157E+01 ( -32.985eV) occ=1.000    -0.1206099E+01 ( -32.820eV) occ=1.000
    -0.1219201E+01 ( -33.176eV) occ=1.000    -0.1229244E+01 ( -33.450eV) occ=1.000
    -0.1277076E+01 ( -34.751eV) occ=1.000    -0.1232898E+01 ( -33.549eV) occ=1.000
    -0.1296393E+01 ( -35.277eV) occ=1.000    -0.1287963E+01 ( -35.048eV) occ=1.000
    -0.1301184E+01 ( -35.407eV) occ=1.000    -0.1298296E+01 ( -35.329eV) occ=1.000
    -0.1392652E+01 ( -37.896eV) occ=1.000    -0.1384636E+01 ( -37.678eV) occ=1.000

 Brillouin zone point:      8
    weight=  0.125000
    k     =<   0.375  -0.125   0.000> . <b1,b2,b3> 
          =<   0.362  -0.121  -0.000>

 orbital energies:
     0.3007859E+00 (   8.185eV) occ=1.000
     0.2947179E+00 (   8.020eV) occ=1.000
     0.2893447E+00 (   7.874eV) occ=1.000     0.3016270E+00 (   8.208eV) occ=1.000
     0.2844096E+00 (   7.739eV) occ=1.000     0.2974409E+00 (   8.094eV) occ=1.000
     0.2823545E+00 (   7.683eV) occ=1.000     0.2869584E+00 (   7.809eV) occ=1.000
     0.2781194E+00 (   7.568eV) occ=1.000     0.2858380E+00 (   7.778eV) occ=1.000
     0.2751971E+00 (   7.489eV) occ=1.000     0.2829169E+00 (   7.699eV) occ=1.000
     0.2735083E+00 (   7.443eV) occ=1.000     0.2777458E+00 (   7.558eV) occ=1.000
     0.2652677E+00 (   7.218eV) occ=1.000     0.2654440E+00 (   7.223eV) occ=1.000
     0.2588360E+00 (   7.043eV) occ=1.000     0.2617958E+00 (   7.124eV) occ=1.000
     0.2565355E+00 (   6.981eV) occ=1.000     0.2590317E+00 (   7.049eV) occ=1.000
     0.2525815E+00 (   6.873eV) occ=1.000     0.2566650E+00 (   6.984eV) occ=1.000
     0.2471013E+00 (   6.724eV) occ=1.000     0.2529954E+00 (   6.884eV) occ=1.000
     0.2390980E+00 (   6.506eV) occ=1.000     0.2431409E+00 (   6.616eV) occ=1.000
     0.2255027E+00 (   6.136eV) occ=1.000     0.2315554E+00 (   6.301eV) occ=1.000
     0.2103164E+00 (   5.723eV) occ=1.000     0.2164722E+00 (   5.891eV) occ=1.000
     0.2058681E+00 (   5.602eV) occ=1.000     0.2055921E+00 (   5.594eV) occ=1.000
     0.2027864E+00 (   5.518eV) occ=1.000     0.2028089E+00 (   5.519eV) occ=1.000
     0.1832423E+00 (   4.986eV) occ=1.000     0.1792703E+00 (   4.878eV) occ=1.000
    -0.1285015E+00 (  -3.497eV) occ=1.000    -0.1296701E+00 (  -3.529eV) occ=1.000
    -0.1743269E+00 (  -4.744eV) occ=1.000    -0.1832287E+00 (  -4.986eV) occ=1.000
    -0.1867160E+00 (  -5.081eV) occ=1.000    -0.1952460E+00 (  -5.313eV) occ=1.000
    -0.2705847E+00 (  -7.363eV) occ=1.000    -0.2770646E+00 (  -7.539eV) occ=1.000
    -0.2859030E+00 (  -7.780eV) occ=1.000    -0.2824005E+00 (  -7.685eV) occ=1.000
    -0.3128848E+00 (  -8.514eV) occ=1.000    -0.2880233E+00 (  -7.838eV) occ=1.000
    -0.3254140E+00 (  -8.855eV) occ=1.000    -0.3034353E+00 (  -8.257eV) occ=1.000
    -0.3279439E+00 (  -8.924eV) occ=1.000    -0.3116289E+00 (  -8.480eV) occ=1.000
    -0.3471666E+00 (  -9.447eV) occ=1.000    -0.3355150E+00 (  -9.130eV) occ=1.000
    -0.3599659E+00 (  -9.795eV) occ=1.000    -0.3400779E+00 (  -9.254eV) occ=1.000
    -0.3644013E+00 (  -9.916eV) occ=1.000    -0.3676430E+00 ( -10.004eV) occ=1.000
    -0.3742961E+00 ( -10.185eV) occ=1.000    -0.3807225E+00 ( -10.360eV) occ=1.000
    -0.3947375E+00 ( -10.741eV) occ=1.000    -0.3947314E+00 ( -10.741eV) occ=1.000
    -0.4045966E+00 ( -11.010eV) occ=1.000    -0.4125023E+00 ( -11.225eV) occ=1.000
    -0.4294860E+00 ( -11.687eV) occ=1.000    -0.4212940E+00 ( -11.464eV) occ=1.000
    -0.4466094E+00 ( -12.153eV) occ=1.000    -0.4339423E+00 ( -11.808eV) occ=1.000
    -0.4536817E+00 ( -12.345eV) occ=1.000    -0.4476873E+00 ( -12.182eV) occ=1.000
    -0.4691095E+00 ( -12.765eV) occ=1.000    -0.4716390E+00 ( -12.834eV) occ=1.000
    -0.6289617E+00 ( -17.115eV) occ=1.000    -0.6291453E+00 ( -17.120eV) occ=1.000
    -0.9011326E+00 ( -24.521eV) occ=1.000    -0.8938011E+00 ( -24.322eV) occ=1.000
    -0.9025016E+00 ( -24.559eV) occ=1.000    -0.8952231E+00 ( -24.360eV) occ=1.000
    -0.1219129E+01 ( -33.174eV) occ=1.000    -0.1211444E+01 ( -32.965eV) occ=1.000
    -0.1219556E+01 ( -33.186eV) occ=1.000    -0.1221443E+01 ( -33.237eV) occ=1.000
    -0.1281073E+01 ( -34.860eV) occ=1.000    -0.1242102E+01 ( -33.800eV) occ=1.000
    -0.1288511E+01 ( -35.062eV) occ=1.000    -0.1285713E+01 ( -34.986eV) occ=1.000
    -0.1291631E+01 ( -35.147eV) occ=1.000    -0.1289010E+01 ( -35.076eV) occ=1.000
    -0.1389842E+01 ( -37.820eV) occ=1.000    -0.1380348E+01 ( -37.561eV) occ=1.000

 Total BAND energy   :  -0.3145903119E+03


=== Spin Contamination ===

 <Sexact^2> =    2.0000000000000000     
 <S^2>      =    7.9075505898983245     


 Writing Crystallographic Information File:./perm/U6-pbe96.opt.cif
   - cell not shifted (nwpw:cif_shift_cell .false.)

 output psi filename:./perm/U6O-100-top.movecs


== Timing ==

cputime in seconds
  prologue    :   0.415535E+02
  main loop   :   0.513854E+04
  epilogue    :   0.544962E+02
  total       :   0.523459E+04
  cputime/step:   0.738402E+00       (    6959 evalulations,    2550 linesearches)


Time spent doing                        total          step
  FFTs                       :   0.133637E+03  0.192034E-01
  dot products               :   0.261896E+04  0.376342E+00
  geodesic                   :   0.141722E+04  0.203653E+00
  ffm_dgemm                  :   0.000000E+00  0.000000E+00
  fmf_dgemm                  :   0.000000E+00  0.000000E+00
  m_diagonalize              :   0.000000E+00  0.000000E+00
    - m_tredq                :   0.000000E+00  0.000000E+00
       - m_tredq_houseq      :   0.000000E+00  0.000000E+00
       - m_tredq_houseq_dgemm:   0.000000E+00  0.000000E+00
       - m_tredq_dgemm1      :   0.000000E+00  0.000000E+00
    - m_getdiags             :   0.000000E+00  0.000000E+00
    - m_tqliq                :   0.000000E+00  0.000000E+00
    - m_eigsrt               :   0.000000E+00  0.000000E+00
  exchange correlation       :   0.192801E+03  0.277052E-01
  local pseudopotentials     :   0.352144E-03  0.506027E-07
  non-local pseudopotentials :   0.126118E+04  0.181230E+00
  hartree potentials         :   0.118349E+01  0.170066E-03
  ion-ion interaction        :   0.218727E+01  0.314309E-03
  structure factors          :   0.246012E+01  0.353516E-03
  phase factors              :   0.000000E+00  0.000000E+00
  masking and packing        :   0.149618E+03  0.215000E-01
  queue fft                  :   0.137124E+04  0.197046E+00
  queue fft (serial)         :   0.448107E+03  0.643925E-01
  queue fft (message passing):   0.889492E+03  0.127819E+00
  HFX potential              :   0.000000E+00  0.000000E+00
  qmmm LJ                    :   0.000000E+00  0.000000E+00
  qmmm residual Q            :   0.000000E+00  0.000000E+00

     >>>  JOB COMPLETED     AT Fri Mar 15 20:23:13 2013  <<<

 Task  times  cpu:     5194.7s     wall:     5234.7s


                                NWChem Input Module
                                -------------------



  !!!!!!!!!  geom_3d NEEDS TESTING !!!!!!!!!! 


                         Geometry "geometry" -> "        "
                         ---------------------------------

 Output coordinates in angstroms (scale by  1.889725989 to convert to a.u.)

  No.       Tag          Charge          X              Y              Z
 ---- ---------------- ---------- -------------- -------------- --------------
    1 U1                  92.0000     1.72000000     1.72000000    17.57233320
    2 U2                  92.0000     0.00000000     0.00000000    16.36305000
    3 U3                  92.0000     1.72000000     1.72000000    14.37998760
    4 U4                  92.0000     0.00000000     0.00000000    12.66000000
    5 U5                  92.0000     1.72000000     1.72000000    10.67693760
    6 U6                  92.0000     0.00000000     0.00000000     9.46765440
    7 O1                   8.0000     1.72000000     1.72000000    18.32231160

      Lattice Parameters 
      ------------------ 

      lattice vectors in angstroms (scale by  1.889725989 to convert to a.u.)

      a1=<   3.440   0.000   0.000 >
      a2=<   0.000   3.440   0.000 >
      a3=<   0.000   0.000  25.320 >
      a=       3.440 b=      3.440 c=      25.320
      alpha=  90.000 beta=  90.000 gamma=  90.000
      omega=   299.6

      reciprocal lattice vectors in a.u.

      b1=<   0.967   0.000  -0.000 >
      b2=<  -0.000   0.967  -0.000 >
      b3=<   0.000   0.000   0.131 >

      Atomic Mass 
      ----------- 

      U1               238.050800
      U2               238.050800
      U3               238.050800
      U4               238.050800
      U5               238.050800
      U6               238.050800
      O1                15.994910


 ==============================================================================
                                internuclear distances
[...]
    -0.3223531E+00 (  -8.772eV) occ=1.000    -0.3196901E+00 (  -8.699eV) occ=1.000
    -0.3358793E+00 (  -9.140eV) occ=1.000    -0.3259184E+00 (  -8.869eV) occ=1.000
    -0.3438315E+00 (  -9.356eV) occ=1.000    -0.3373645E+00 (  -9.180eV) occ=1.000
    -0.3626933E+00 (  -9.869eV) occ=1.000    -0.3418151E+00 (  -9.301eV) occ=1.000
    -0.3709597E+00 ( -10.094eV) occ=1.000    -0.3620352E+00 (  -9.852eV) occ=1.000
    -0.3774664E+00 ( -10.271eV) occ=1.000    -0.3683533E+00 ( -10.023eV) occ=1.000
    -0.3897944E+00 ( -10.607eV) occ=1.000    -0.3726233E+00 ( -10.140eV) occ=1.000
    -0.3999826E+00 ( -10.884eV) occ=1.000    -0.3852130E+00 ( -10.482eV) occ=1.000
    -0.4206915E+00 ( -11.448eV) occ=1.000    -0.4023093E+00 ( -10.947eV) occ=1.000
    -0.4262840E+00 ( -11.600eV) occ=1.000    -0.4230966E+00 ( -11.513eV) occ=1.000
    -0.4473495E+00 ( -12.173eV) occ=1.000    -0.4372889E+00 ( -11.899eV) occ=1.000
    -0.4549106E+00 ( -12.379eV) occ=1.000    -0.4540201E+00 ( -12.355eV) occ=1.000
    -0.4751577E+00 ( -12.930eV) occ=1.000    -0.4739390E+00 ( -12.897eV) occ=1.000
    -0.4893507E+00 ( -13.316eV) occ=1.000    -0.4853939E+00 ( -13.208eV) occ=1.000
    -0.4960443E+00 ( -13.498eV) occ=1.000    -0.5079307E+00 ( -13.822eV) occ=1.000
    -0.5070333E+00 ( -13.797eV) occ=1.000    -0.5128349E+00 ( -13.955eV) occ=1.000
    -0.5185055E+00 ( -14.109eV) occ=1.000    -0.5348017E+00 ( -14.553eV) occ=1.000
    -0.1256018E+01 ( -34.178eV) occ=1.000    -0.1253302E+01 ( -34.104eV) occ=1.000
    -0.1273797E+01 ( -34.662eV) occ=1.000    -0.1262714E+01 ( -34.360eV) occ=1.000
    -0.1279763E+01 ( -34.824eV) occ=1.000    -0.1264295E+01 ( -34.404eV) occ=1.000
    -0.1326292E+01 ( -36.091eV) occ=1.000    -0.1327527E+01 ( -36.124eV) occ=1.000
    -0.1335111E+01 ( -36.330eV) occ=1.000    -0.1330373E+01 ( -36.202eV) occ=1.000
    -0.1339145E+01 ( -36.440eV) occ=1.000    -0.1353585E+01 ( -36.833eV) occ=1.000

 Brillouin zone point:      6
    weight=  0.125000
    k     =<   0.125   0.125   0.000> . <b1,b2,b3> 
          =<   0.121   0.121  -0.000>

 orbital energies:
     0.2495970E+00 (   6.792eV) occ=1.000
     0.2471047E+00 (   6.724eV) occ=1.000
     0.2437587E+00 (   6.633eV) occ=1.000     0.2532766E+00 (   6.892eV) occ=1.000
     0.2394146E+00 (   6.515eV) occ=1.000     0.2492504E+00 (   6.783eV) occ=1.000
     0.2296794E+00 (   6.250eV) occ=1.000     0.2457858E+00 (   6.688eV) occ=1.000
     0.2274580E+00 (   6.189eV) occ=1.000     0.2384737E+00 (   6.489eV) occ=1.000
     0.2256102E+00 (   6.139eV) occ=1.000     0.2281290E+00 (   6.208eV) occ=1.000
     0.2205376E+00 (   6.001eV) occ=1.000     0.2239493E+00 (   6.094eV) occ=1.000
     0.2152103E+00 (   5.856eV) occ=1.000     0.2182834E+00 (   5.940eV) occ=1.000
     0.2103582E+00 (   5.724eV) occ=1.000     0.2154552E+00 (   5.863eV) occ=1.000
     0.2055503E+00 (   5.593eV) occ=1.000     0.2095566E+00 (   5.702eV) occ=1.000
     0.2024655E+00 (   5.509eV) occ=1.000     0.2042474E+00 (   5.558eV) occ=1.000
     0.1968065E+00 (   5.355eV) occ=1.000     0.1990459E+00 (   5.416eV) occ=1.000
     0.1951986E+00 (   5.312eV) occ=1.000     0.1962238E+00 (   5.340eV) occ=1.000
     0.1782494E+00 (   4.850eV) occ=1.000     0.1894952E+00 (   5.156eV) occ=1.000
     0.1752077E+00 (   4.768eV) occ=1.000     0.1841755E+00 (   5.012eV) occ=1.000
     0.1569579E+00 (   4.271eV) occ=1.000     0.1777001E+00 (   4.836eV) occ=1.000
     0.1475138E+00 (   4.014eV) occ=1.000     0.1583575E+00 (   4.309eV) occ=1.000
     0.1430577E+00 (   3.893eV) occ=1.000     0.1520835E+00 (   4.138eV) occ=1.000
     0.1211811E+00 (   3.298eV) occ=1.000     0.1159101E+00 (   3.154eV) occ=1.000
     0.1111453E+00 (   3.024eV) occ=1.000     0.9577669E-01 (   2.606eV) occ=1.000
    -0.2918469E+00 (  -7.942eV) occ=1.000    -0.2798401E+00 (  -7.615eV) occ=1.000
    -0.3081290E+00 (  -8.385eV) occ=1.000    -0.3030943E+00 (  -8.248eV) occ=1.000
    -0.3133887E+00 (  -8.528eV) occ=1.000    -0.3148077E+00 (  -8.566eV) occ=1.000
    -0.3224065E+00 (  -8.773eV) occ=1.000    -0.3229213E+00 (  -8.787eV) occ=1.000
    -0.3318238E+00 (  -9.029eV) occ=1.000    -0.3242599E+00 (  -8.824eV) occ=1.000
    -0.3522443E+00 (  -9.585eV) occ=1.000    -0.3355269E+00 (  -9.130eV) occ=1.000
    -0.3643015E+00 (  -9.913eV) occ=1.000    -0.3498666E+00 (  -9.520eV) occ=1.000
    -0.3781927E+00 ( -10.291eV) occ=1.000    -0.3629659E+00 (  -9.877eV) occ=1.000
    -0.3890006E+00 ( -10.585eV) occ=1.000    -0.3673663E+00 (  -9.997eV) occ=1.000
    -0.3996815E+00 ( -10.876eV) occ=1.000    -0.3878153E+00 ( -10.553eV) occ=1.000
    -0.4226884E+00 ( -11.502eV) occ=1.000    -0.4044973E+00 ( -11.007eV) occ=1.000
    -0.4363771E+00 ( -11.875eV) occ=1.000    -0.4157904E+00 ( -11.314eV) occ=1.000
    -0.4439336E+00 ( -12.080eV) occ=1.000    -0.4269301E+00 ( -11.617eV) occ=1.000
    -0.4516673E+00 ( -12.291eV) occ=1.000    -0.4484720E+00 ( -12.204eV) occ=1.000
    -0.4580078E+00 ( -12.463eV) occ=1.000    -0.4703600E+00 ( -12.799eV) occ=1.000
    -0.4670033E+00 ( -12.708eV) occ=1.000    -0.4769547E+00 ( -12.979eV) occ=1.000
    -0.4764842E+00 ( -12.966eV) occ=1.000    -0.4799546E+00 ( -13.060eV) occ=1.000
    -0.4886868E+00 ( -13.298eV) occ=1.000    -0.5024482E+00 ( -13.672eV) occ=1.000
    -0.4922964E+00 ( -13.396eV) occ=1.000    -0.5090564E+00 ( -13.852eV) occ=1.000
    -0.1240564E+01 ( -33.758eV) occ=1.000    -0.1248056E+01 ( -33.962eV) occ=1.000
    -0.1266140E+01 ( -34.454eV) occ=1.000    -0.1255990E+01 ( -34.177eV) occ=1.000
    -0.1296710E+01 ( -35.286eV) occ=1.000    -0.1272110E+01 ( -34.616eV) occ=1.000
    -0.1322424E+01 ( -35.985eV) occ=1.000    -0.1316478E+01 ( -35.823eV) occ=1.000
    -0.1343232E+01 ( -36.551eV) occ=1.000    -0.1337638E+01 ( -36.399eV) occ=1.000
    -0.1349372E+01 ( -36.719eV) occ=1.000    -0.1370085E+01 ( -37.282eV) occ=1.000

 Brillouin zone point:      7
    weight=  0.125000
    k     =<   0.125  -0.125   0.000> . <b1,b2,b3> 
          =<   0.121  -0.121  -0.000>

 orbital energies:
     0.2501706E+00 (   6.808eV) occ=1.000
     0.2474980E+00 (   6.735eV) occ=1.000
     0.2424944E+00 (   6.599eV) occ=1.000     0.2535585E+00 (   6.900eV) occ=1.000
     0.2402145E+00 (   6.537eV) occ=1.000     0.2496113E+00 (   6.792eV) occ=1.000
     0.2302623E+00 (   6.266eV) occ=1.000     0.2426911E+00 (   6.604eV) occ=1.000
     0.2262632E+00 (   6.157eV) occ=1.000     0.2389345E+00 (   6.502eV) occ=1.000
     0.2259144E+00 (   6.147eV) occ=1.000     0.2278840E+00 (   6.201eV) occ=1.000
     0.2199857E+00 (   5.986eV) occ=1.000     0.2227493E+00 (   6.061eV) occ=1.000
     0.2150533E+00 (   5.852eV) occ=1.000     0.2186788E+00 (   5.951eV) occ=1.000
     0.2110169E+00 (   5.742eV) occ=1.000     0.2156236E+00 (   5.867eV) occ=1.000
     0.2054619E+00 (   5.591eV) occ=1.000     0.2075180E+00 (   5.647eV) occ=1.000
     0.2013753E+00 (   5.480eV) occ=1.000     0.2050123E+00 (   5.579eV) occ=1.000
     0.1963282E+00 (   5.342eV) occ=1.000     0.1993627E+00 (   5.425eV) occ=1.000
     0.1953586E+00 (   5.316eV) occ=1.000     0.1962356E+00 (   5.340eV) occ=1.000
     0.1781450E+00 (   4.848eV) occ=1.000     0.1896538E+00 (   5.161eV) occ=1.000
     0.1753166E+00 (   4.771eV) occ=1.000     0.1842107E+00 (   5.013eV) occ=1.000
     0.1573058E+00 (   4.281eV) occ=1.000     0.1776560E+00 (   4.834eV) occ=1.000
     0.1474139E+00 (   4.011eV) occ=1.000     0.1583313E+00 (   4.308eV) occ=1.000
     0.1431529E+00 (   3.895eV) occ=1.000     0.1519236E+00 (   4.134eV) occ=1.000
     0.1211538E+00 (   3.297eV) occ=1.000     0.1162175E+00 (   3.162eV) occ=1.000
     0.1113581E+00 (   3.030eV) occ=1.000     0.9576393E-01 (   2.606eV) occ=1.000
    -0.2919780E+00 (  -7.945eV) occ=1.000    -0.2798428E+00 (  -7.615eV) occ=1.000
    -0.3080355E+00 (  -8.382eV) occ=1.000    -0.3019216E+00 (  -8.216eV) occ=1.000
    -0.3137127E+00 (  -8.537eV) occ=1.000    -0.3153382E+00 (  -8.581eV) occ=1.000
    -0.3223710E+00 (  -8.772eV) occ=1.000    -0.3230720E+00 (  -8.791eV) occ=1.000
    -0.3316572E+00 (  -9.025eV) occ=1.000    -0.3244502E+00 (  -8.829eV) occ=1.000
    -0.3521174E+00 (  -9.582eV) occ=1.000    -0.3358654E+00 (  -9.139eV) occ=1.000
    -0.3643012E+00 (  -9.913eV) occ=1.000    -0.3494914E+00 (  -9.510eV) occ=1.000
    -0.3781053E+00 ( -10.289eV) occ=1.000    -0.3628794E+00 (  -9.875eV) occ=1.000
    -0.3890075E+00 ( -10.586eV) occ=1.000    -0.3676272E+00 ( -10.004eV) occ=1.000
    -0.3997380E+00 ( -10.878eV) occ=1.000    -0.3885034E+00 ( -10.572eV) occ=1.000
    -0.4226559E+00 ( -11.501eV) occ=1.000    -0.4036484E+00 ( -10.984eV) occ=1.000
    -0.4363069E+00 ( -11.873eV) occ=1.000    -0.4160856E+00 ( -11.322eV) occ=1.000
    -0.4438869E+00 ( -12.079eV) occ=1.000    -0.4269525E+00 ( -11.618eV) occ=1.000
    -0.4518096E+00 ( -12.294eV) occ=1.000    -0.4488402E+00 ( -12.214eV) occ=1.000
    -0.4580351E+00 ( -12.464eV) occ=1.000    -0.4704438E+00 ( -12.802eV) occ=1.000
    -0.4670341E+00 ( -12.709eV) occ=1.000    -0.4773703E+00 ( -12.990eV) occ=1.000
    -0.4765216E+00 ( -12.967eV) occ=1.000    -0.4789757E+00 ( -13.034eV) occ=1.000
    -0.4886743E+00 ( -13.298eV) occ=1.000    -0.5023025E+00 ( -13.668eV) occ=1.000
    -0.4922468E+00 ( -13.395eV) occ=1.000    -0.5092606E+00 ( -13.858eV) occ=1.000
    -0.1240563E+01 ( -33.758eV) occ=1.000    -0.1248058E+01 ( -33.962eV) occ=1.000
    -0.1266140E+01 ( -34.454eV) occ=1.000    -0.1255998E+01 ( -34.178eV) occ=1.000
    -0.1296711E+01 ( -35.286eV) occ=1.000    -0.1272109E+01 ( -34.616eV) occ=1.000
    -0.1322425E+01 ( -35.985eV) occ=1.000    -0.1316476E+01 ( -35.823eV) occ=1.000
    -0.1343231E+01 ( -36.551eV) occ=1.000    -0.1337633E+01 ( -36.399eV) occ=1.000
    -0.1349372E+01 ( -36.719eV) occ=1.000    -0.1370087E+01 ( -37.282eV) occ=1.000

 Brillouin zone point:      8
    weight=  0.125000
    k     =<   0.375  -0.125   0.000> . <b1,b2,b3> 
          =<   0.362  -0.121  -0.000>

 orbital energies:
     0.2536585E+00 (   6.902eV) occ=1.000
     0.2492307E+00 (   6.782eV) occ=1.000
     0.2444397E+00 (   6.652eV) occ=1.000     0.2557955E+00 (   6.961eV) occ=1.000
     0.2404539E+00 (   6.543eV) occ=1.000     0.2500178E+00 (   6.803eV) occ=1.000
     0.2372567E+00 (   6.456eV) occ=1.000     0.2438224E+00 (   6.635eV) occ=1.000
     0.2337665E+00 (   6.361eV) occ=1.000     0.2411595E+00 (   6.562eV) occ=1.000
     0.2311073E+00 (   6.289eV) occ=1.000     0.2366160E+00 (   6.439eV) occ=1.000
     0.2266621E+00 (   6.168eV) occ=1.000     0.2352133E+00 (   6.401eV) occ=1.000
     0.2207430E+00 (   6.007eV) occ=1.000     0.2325126E+00 (   6.327eV) occ=1.000
     0.2150297E+00 (   5.851eV) occ=1.000     0.2236009E+00 (   6.085eV) occ=1.000
     0.2109955E+00 (   5.742eV) occ=1.000     0.2184919E+00 (   5.946eV) occ=1.000
     0.2067374E+00 (   5.626eV) occ=1.000     0.2171130E+00 (   5.908eV) occ=1.000
     0.1992420E+00 (   5.422eV) occ=1.000     0.2133865E+00 (   5.807eV) occ=1.000
     0.1972014E+00 (   5.366eV) occ=1.000     0.2045285E+00 (   5.566eV) occ=1.000
     0.1862282E+00 (   5.068eV) occ=1.000     0.1940646E+00 (   5.281eV) occ=1.000
     0.1825494E+00 (   4.967eV) occ=1.000     0.1919235E+00 (   5.223eV) occ=1.000
     0.1711582E+00 (   4.657eV) occ=1.000     0.1841116E+00 (   5.010eV) occ=1.000
     0.1625491E+00 (   4.423eV) occ=1.000     0.1737307E+00 (   4.727eV) occ=1.000
     0.1570455E+00 (   4.273eV) occ=1.000     0.1633203E+00 (   4.444eV) occ=1.000
     0.1540590E+00 (   4.192eV) occ=1.000     0.1526604E+00 (   4.154eV) occ=1.000
     0.1498083E+00 (   4.077eV) occ=1.000     0.1408821E+00 (   3.834eV) occ=1.000
    -0.2972919E+00 (  -8.090eV) occ=1.000    -0.2762695E+00 (  -7.518eV) occ=1.000
    -0.3051529E+00 (  -8.304eV) occ=1.000    -0.3146469E+00 (  -8.562eV) occ=1.000
    -0.3224914E+00 (  -8.776eV) occ=1.000    -0.3197233E+00 (  -8.700eV) occ=1.000
    -0.3359204E+00 (  -9.141eV) occ=1.000    -0.3263351E+00 (  -8.880eV) occ=1.000
    -0.3438142E+00 (  -9.356eV) occ=1.000    -0.3373414E+00 (  -9.180eV) occ=1.000
    -0.3625640E+00 (  -9.866eV) occ=1.000    -0.3415870E+00 (  -9.295eV) occ=1.000
    -0.3709079E+00 ( -10.093eV) occ=1.000    -0.3622854E+00 (  -9.858eV) occ=1.000
    -0.3774614E+00 ( -10.271eV) occ=1.000    -0.3682633E+00 ( -10.021eV) occ=1.000
    -0.3897605E+00 ( -10.606eV) occ=1.000    -0.3728270E+00 ( -10.145eV) occ=1.000
    -0.3999769E+00 ( -10.884eV) occ=1.000    -0.3851527E+00 ( -10.481eV) occ=1.000
    -0.4206753E+00 ( -11.447eV) occ=1.000    -0.4022618E+00 ( -10.946eV) occ=1.000
    -0.4262914E+00 ( -11.600eV) occ=1.000    -0.4233091E+00 ( -11.519eV) occ=1.000
    -0.4474004E+00 ( -12.174eV) occ=1.000    -0.4374622E+00 ( -11.904eV) occ=1.000
    -0.4549116E+00 ( -12.379eV) occ=1.000    -0.4538748E+00 ( -12.351eV) occ=1.000
    -0.4751554E+00 ( -12.930eV) occ=1.000    -0.4738883E+00 ( -12.895eV) occ=1.000
    -0.4893792E+00 ( -13.317eV) occ=1.000    -0.4856669E+00 ( -13.216eV) occ=1.000
    -0.4960050E+00 ( -13.497eV) occ=1.000    -0.5075812E+00 ( -13.812eV) occ=1.000
    -0.5070577E+00 ( -13.798eV) occ=1.000    -0.5127440E+00 ( -13.953eV) occ=1.000
    -0.5185025E+00 ( -14.109eV) occ=1.000    -0.5348893E+00 ( -14.555eV) occ=1.000
    -0.1256015E+01 ( -34.178eV) occ=1.000    -0.1253305E+01 ( -34.104eV) occ=1.000
    -0.1273797E+01 ( -34.662eV) occ=1.000    -0.1262717E+01 ( -34.361eV) occ=1.000
    -0.1279766E+01 ( -34.824eV) occ=1.000    -0.1264299E+01 ( -34.404eV) occ=1.000
    -0.1326294E+01 ( -36.091eV) occ=1.000    -0.1327520E+01 ( -36.124eV) occ=1.000
    -0.1335109E+01 ( -36.330eV) occ=1.000    -0.1330368E+01 ( -36.201eV) occ=1.000
    -0.1339144E+01 ( -36.440eV) occ=1.000    -0.1353589E+01 ( -36.833eV) occ=1.000

 Total BAND energy   :  -0.3238629340E+03


=== Spin Contamination ===

 <Sexact^2> =    2.0000000000000000     
 <S^2>      =    9.0385075620167257     


 Writing Crystallographic Information File:./perm/U6-pbe96.opt.cif
   - cell not shifted (nwpw:cif_shift_cell .false.)

 output psi filename:./perm/U6O-100-top.movecs


== Timing ==

cputime in seconds
  prologue    :   0.278011E+03
  main loop   :   0.478008E+04
  epilogue    :   0.214115E+03
  total       :   0.527220E+04
  cputime/step:   0.201861E+01       (    2368 evalulations,     942 linesearches)


Time spent doing                        total          step
  FFTs                       :   0.311571E+03  0.131575E+00
  dot products               :   0.107240E+04  0.452872E+00
  geodesic                   :   0.662880E+03  0.279932E+00
  ffm_dgemm                  :   0.000000E+00  0.000000E+00
  fmf_dgemm                  :   0.000000E+00  0.000000E+00
  m_diagonalize              :   0.000000E+00  0.000000E+00
    - m_tredq                :   0.000000E+00  0.000000E+00
       - m_tredq_houseq      :   0.000000E+00  0.000000E+00
       - m_tredq_houseq_dgemm:   0.000000E+00  0.000000E+00
       - m_tredq_dgemm1      :   0.000000E+00  0.000000E+00
    - m_getdiags             :   0.000000E+00  0.000000E+00
    - m_tqliq                :   0.000000E+00  0.000000E+00
    - m_eigsrt               :   0.000000E+00  0.000000E+00
  exchange correlation       :   0.460945E+03  0.194656E+00
  local pseudopotentials     :   0.511885E-03  0.216168E-06
  non-local pseudopotentials :   0.429963E+03  0.181572E+00
  hartree potentials         :   0.684026E+00  0.288862E-03
  ion-ion interaction        :   0.136152E+01  0.574967E-03
  structure factors          :   0.844033E+00  0.356433E-03
  phase factors              :   0.000000E+00  0.000000E+00
  masking and packing        :   0.292965E+03  0.123718E+00
  queue fft                  :   0.254275E+04  0.107380E+01
  queue fft (serial)         :   0.875841E+03  0.369865E+00
  queue fft (message passing):   0.156847E+04  0.662360E+00
  HFX potential              :   0.000000E+00  0.000000E+00
  qmmm LJ                    :   0.000000E+00  0.000000E+00
  qmmm residual Q            :   0.000000E+00  0.000000E+00

     >>>  JOB COMPLETED     AT Sat Mar 16 06:25:53 2013  <<<

 Task  times  cpu:     5223.5s     wall:     5272.2s
 Summary of allocated global arrays
-----------------------------------
  No active global arrays



                         GA Statistics for process    0
                         ------------------------------

       create   destroy   get      put      acc     scatter   gather  read&inc
calls:    0        0        0        0        0        0        0        0     
number of processes/call 0.00e+00 0.00e+00 0.00e+00 0.00e+00 0.00e+00
bytes total:             0.00e+00 0.00e+00 0.00e+00 0.00e+00 0.00e+00 0.00e+00
bytes remote:            0.00e+00 0.00e+00 0.00e+00 0.00e+00 0.00e+00 0.00e+00
Max memory consumed for GA by this process: 0 bytes
MA_summarize_allocated_blocks: starting scan ...
MA_summarize_allocated_blocks: scan completed: 0 heap blocks, 0 stack blocks
MA usage statistics:

	allocation statistics:
					      heap	     stack
					      ----	     -----
	current number of blocks	         0	         0
	maximum number of blocks	       284	        25
	current total bytes		         0	         0
	maximum total bytes		 442187776	 254460480
	maximum total K-bytes		    442188	    254461
	maximum total M-bytes		       443	       255


                                NWChem Input Module
                                -------------------





                                     CITATION
                                     --------
                Please cite the following reference when publishing
                           results obtained with NWChem:

                 M. Valiev, E.J. Bylaska, N. Govind, K. Kowalski,
              T.P. Straatsma, H.J.J. van Dam, D. Wang, J. Nieplocha,
                        E. Apra, T.L. Windus, W.A. de Jong
                 "NWChem: a comprehensive and scalable open-source
                  solution for large scale molecular simulations"
                      Comput. Phys. Commun. 181, 1477 (2010)
                           doi:10.1016/j.cpc.2010.04.018

                              AUTHORS & CONTRIBUTORS
                              ----------------------
          E. Apra, E. J. Bylaska, W. A. de Jong, N. Govind, K. Kowalski,
       T. P. Straatsma, M. Valiev, H. J. J. van Dam, D. Wang, T. L. Windus,
    J. Hammond, J. Autschbach, F. Aquino, S. Hirata, M. T. Hackler, K. Lopata,
      J. Mullin, P. Nichols, R. Peverati, Y. Zhao, P.-D. Fan, R. J. Harrison,
        M. Dupuis, D. M. A. Smith, J. Nieplocha, V. Tipparaju, M. Krishnan,
       B. E. Van Kuiken, A. Vazquez-Mayagoitia, L. Jensen, M. Swart, Q. Wu,
   T. Van Voorhis, A. A. Auer, M. Nooijen, L. D. Crosby, E. Brown, G. Cisneros,
      G. I. Fann, H. Fruchtl, J. Garza, K. Hirao, R. Kendall, J. A. Nichols,
        K. Tsemekhman, K. Wolinski, J. Anchell, D. Bernholdt, P. Borowski,
  T. Clark, D. Clerc, H. Dachsel, M. Deegan, K. Dyall, D. Elwood, E. Glendening,
         M. Gutowski, A. Hess, J. Jaffe, B. Johnson, J. Ju, R. Kobayashi,
     R. Kutteh, Z. Lin, R. Littlefield, X. Long, B. Meng, T. Nakajima, S. Niu,
      L. Pollack, M. Rosing, K. Glaesemann, G. Sandrone, M. Stave, H. Taylor,
                  G. Thomas, J. H. van Lenthe, A. Wong, Z. Zhang.

 Total times  cpu:    40926.1s     wall:    41396.2s
cp: cannot stat `./U6O-100-top.out': No such file or directory
----------------------------------------
Begin Torque Epilogue (Sat Mar 16 06:25:56 2013)
Job ID:           389261.taubm1.campuscluster.illinois.edu
Username:         davis68
Group:            npre_rizwan
Job Name:         U6O-100-top
Session:          10747
Limits:           ncpus=1,neednodes=24:ppn=12,nodes=24:ppn=12,walltime=12:00:00
Resources:        cput=3309:05:55,mem=285269496kb,vmem=658679288kb,walltime=11:30:03
Job Queue:        cse
Account:          NPRE
Nodes:            taub315 taub316 taub318 taub320 taub333 taub336 taub351 taub353 taub356 taub357 taub358 taub370 taub377 taub386 taub387 taub388 taub390 taub391 taub399 taub463 taub473 taub474 taub482 taub484
End Torque Epilogue
----------------------------------------
