----------------------------------------
Begin Torque Prologue (Sun Mar 10 10:21:47 2013)
Job ID:           384870.taubm1.campuscluster.illinois.edu
Username:         davis68
Group:            npre_rizwan
Job Name:         U6O2-211-opt
Limits:           ncpus=1,neednodes=24:ppn=12,nodes=24:ppn=12,walltime=24:00:00
Job Queue:        cse
Account:          NPRE
Nodes:            taub280 taub284 taub297 taub308 taub310 taub315 taub316 taub317 taub318 taub339 taub340 taub348 taub349 taub350 taub351 taub352 taub353 taub354 taub355 taub356 taub357 taub358 taub359 taub503
End Torque Prologue
----------------------------------------
 argument  1 = ./U6O2-211-opt.nw



============================== echo of input deck ==============================
title "Gamma-uranium (100) adsorption"
echo

permanent_dir ./perm
scratch_dir   ./scratch

restart U6O2-211-parctr

memory 2500 mb

nwpw
  # Real-space discretization
  simulation_cell
    ngrid 36 48 210
  end

  # Spin multiplicity---quenched to 1 in the solid state
  mult 3

  # Band, k-point sampling, and parallelism
  monkhorst-pack 4 4 1
  np_dimensions 8 12 8
  mapping 2

  # Periodicity considerations
  ewald_rcut 3.0
  ewald_ncut 8

  # Simulation parameters
  #restricted    # DFT||ODFT||RESTRICTED||UNRESTRICTED
  xc pbe96
  cutoff 90.0
  loop 10 300
  tolerances 1.0e-7 1.0e-7
end
set nwpw:minimizer      2
set nwpw:lcao_skip      .true.
set nwpw:kbpp_ray       .true.
set nwpw:kbpp_filter    .true.

## Optimization ##
driver
  #clear                # Deletes all restart data
  loose               # Specify loose, default, or tight convergence
  xyz U6O2     # Output XYZ file of geometry at each stage
  maxiter 80
end
set driver:linopt 0
set nwpw:cif_filename U6O2.opt
set nwpw:psi_nolattice .true.

#       (211) gamma-uranium surface with surface displacements:	43.40%	-18.50%	and X displacement of	1.500	Å
geometry	center	noautosym	noautoz	print
	system	crystal
	lat_a	2.97913
	lat_b	4.86259
	lat_c	20.42762
	alpha	90.0d0
	beta	90.0d0
	gamma	90.0d0
	end
	U1	0.66667	0.50000	0.68916
	U2	0.33333	0.00000	0.65024
	U3	0.00000	0.50000	0.56876
	U4	0.66667	0.00000	0.50000
	U5	0.33333	0.50000	0.41852
	U6	0.00000	0.00000	0.37960
	O1	0.16667	0.62442	0.76259
	O2	0.16667	0.37558	0.76259
end
constraints surf
  fix atom 1:6
end
set constraints surf
task band optimize ignore

# A.M.D.G.
================================================================================


                                         
                                         


             Northwest Computational Chemistry Package (NWChem) 6.1.1
             --------------------------------------------------------


                    Environmental Molecular Sciences Laboratory
                       Pacific Northwest National Laboratory
                                Richland, WA 99352

                              Copyright (c) 1994-2012
                       Pacific Northwest National Laboratory
                            Battelle Memorial Institute

             NWChem is an open-source computational chemistry package
                        distributed under the terms of the
                      Educational Community License (ECL) 2.0
             A copy of the license is included with this distribution
                              in the LICENSE.TXT file

                                  ACKNOWLEDGMENT
                                  --------------

            This software and its documentation were developed at the
            EMSL at Pacific Northwest National Laboratory, a multiprogram
            national laboratory, operated for the U.S. Department of Energy
            by Battelle under Contract Number DE-AC05-76RL01830. Support
            for this work was provided by the Department of Energy Office
            of Biological and Environmental Research, Office of Basic
            Energy Sciences, and the Office of Advanced Scientific Computing.


           Job information
           ---------------

    hostname        = taub503
    program         = /home/davis68/bin/nwchem-dev
    date            = Sun Mar 10 10:22:39 2013

    compiled        = Wed_Oct_03_09:41:00_2012
    source          = /home/davis68/nwchem/nwchem-src-2012-Aug-27/
    nwchem branch   = Development
    nwchem revision = 22805
    ga revision     = 10079
    input           = ./U6O2-211-opt.nw
    prefix          = U6O2-211-parctr.
    data base       = ./perm/U6O2-211-parctr.db
    status          = restart
    nproc           =      288
    time left       =     -1s



           Memory information
           ------------------

    heap     =   81920001 doubles =    625.0 Mbytes
    stack    =   81920001 doubles =    625.0 Mbytes
    global   =  163840000 doubles =   1250.0 Mbytes (distinct from heap & stack)
    total    =  327680002 doubles =   2500.0 Mbytes
    verify   = yes
    hardfail = no 


           Directory information
           ---------------------

  0 permanent = ./perm
  0 scratch   = ./scratch


           Previous task information
           -------------------------

    Theory    = band                            
    Operation = energy                        
    Status    = ok                            
    Qmmm      = F
    Ignore    = F


           Geometries in the database
           --------------------------

       Name                              Natoms  Last Modified
       --------------------------------  ------  ------------------------
    1  geometry                               8  Fri Mar  8 16:17:29 2013  

  The geometry named "geometry" is the default for restart



           Basis sets in the database
           --------------------------

  There are no basis sets in the database



                                NWChem Input Module
                                -------------------


                          Gamma-uranium (100) adsorption
                          ------------------------------

  !!!!!!!!!  geom_3d NEEDS TESTING !!!!!!!!!! 


                             Geometry "geometry" -> ""
                             -------------------------

 Output coordinates in angstroms (scale by  1.889725989 to convert to a.u.)

  No.       Tag          Charge          X              Y              Z
 ---- ---------------- ---------- -------------- -------------- --------------
    1 U1                  92.0000     1.98609660     2.43129500    14.07789860
    2 U2                  92.0000     0.99303340     0.00000000    13.28285563
    3 U3                  92.0000     0.00000000     2.43129500    11.61841315
    4 U4                  92.0000     1.98609660     0.00000000    10.21381000
    5 U5                  92.0000     0.99303340     2.43129500     8.54936752
    6 U6                  92.0000     0.00000000     0.00000000     7.75432455
    7 O1                   8.0000     0.49653160     3.03629845    15.57789874
    8 O2                   8.0000     0.49653160     1.82629155    15.57789874

      Lattice Parameters 
      ------------------ 

      lattice vectors in angstroms (scale by  1.889725989 to convert to a.u.)

      a1=<   2.979   0.000   0.000 >
      a2=<   0.000   4.863   0.000 >
      a3=<   0.000   0.000  20.428 >
      a=       2.979 b=      4.863 c=      20.428
      alpha=  90.000 beta=  90.000 gamma=  90.000
      omega=   295.9

      reciprocal lattice vectors in a.u.

      b1=<   1.116   0.000  -0.000 >
      b2=<  -0.000   0.684  -0.000 >
      b3=<   0.000   0.000   0.163 >

      Atomic Mass 
      ----------- 

      U1               238.050800
      U2               238.050800
      U3               238.050800
      U4               238.050800
      U5               238.050800
      U6               238.050800
      O1                15.994910
      O2                15.994910


 ==============================================================================
                                internuclear distances
 ------------------------------------------------------------------------------
       center one      |      center two      | atomic units |  angstroms
 ------------------------------------------------------------------------------
    2 U2               |   1 U1               |     5.18538  |     2.74399
    3 U3               |   1 U1               |     5.97394  |     3.16127
    3 U3               |   2 U2               |     5.87570  |     3.10929
    4 U4               |   2 U2               |     6.09571  |     3.22571
    4 U4               |   3 U3               |     6.49931  |     3.43929
    5 U5               |   3 U3               |     6.09569  |     3.22570
    5 U5               |   4 U4               |     5.87572  |     3.10930
    6 U6               |   4 U4               |     5.97394  |     3.16127
    6 U6               |   5 U5               |     5.18536  |     2.74398
    7 O1               |   1 U1               |     4.15518  |     2.19883
    8 O2               |   1 U1               |     4.15518  |     2.19883
    8 O2               |   7 O1               |     2.28658  |     1.21001
 ------------------------------------------------------------------------------
                         number of included internuclear distances:         12
 ==============================================================================



 ==============================================================================
                                 internuclear angles
 ------------------------------------------------------------------------------
        center 1       |       center 2       |       center 3       |  degrees
 ------------------------------------------------------------------------------
    1 U1               |   2 U2               |   3 U3               |    65.03
    2 U2               |   1 U1               |   7 O1               |   101.32
    2 U2               |   1 U1               |   8 O2               |    73.06
    3 U3               |   1 U1               |   7 O1               |    96.03
    3 U3               |   1 U1               |   8 O2               |    96.03
    7 O1               |   1 U1               |   8 O2               |    31.94
    1 U1               |   2 U2               |   3 U3               |    65.03
    1 U1               |   2 U2               |   4 U4               |    99.45
    3 U3               |   2 U2               |   4 U4               |    65.73
    3 U3               |   2 U2               |   1 U1               |    65.03
    1 U1               |   3 U3               |   4 U4               |    87.42
    1 U1               |   3 U3               |   5 U5               |   123.15
    3 U3               |   2 U2               |   4 U4               |    65.73
    2 U2               |   3 U3               |   5 U5               |   114.27
    3 U3               |   5 U5               |   4 U4               |    65.73
    4 U4               |   2 U2               |   3 U3               |    65.73
    2 U2               |   4 U4               |   5 U5               |   114.27
    2 U2               |   4 U4               |   6 U6               |   123.15
    4 U4               |   5 U5               |   3 U3               |    65.73
    3 U3               |   4 U4               |   6 U6               |    87.42
    4 U4               |   5 U5               |   6 U6               |    65.03
    3 U3               |   5 U5               |   4 U4               |    65.73
    3 U3               |   5 U5               |   6 U6               |    99.45
    4 U4               |   5 U5               |   6 U6               |    65.03
    6 U6               |   5 U5               |   4 U4               |    65.03
    7 O1               |   1 U1               |   8 O2               |    31.94
    8 O2               |   1 U1               |   7 O1               |    31.94
 ------------------------------------------------------------------------------
                            number of included internuclear angles:         27
 ==============================================================================



 fixed atoms                  :   1     2     3     4
                                  5     6


 no springs found
                         NWChem Constraints Module
                         -------------------------
 General Information
 -------------------
 fixed atoms                  :   1     2     3     4
                                  5     6


 no springs found
 no springs found


                           NWChem Geometry Optimization
                           ----------------------------




                          Gamma-uranium (100) adsorption


 maximum gradient threshold         (gmax) =   0.004500
 rms gradient threshold             (grms) =   0.003000
 maximum cartesian step threshold   (xmax) =   0.018000
 rms cartesian step threshold       (xrms) =   0.012000
 fixed trust radius                (trust) =   0.300000
 maximum step size to saddle      (sadstp) =   0.100000
 energy precision                  (eprec) =   1.0D-07
 maximum number of steps          (nptopt) =   80
 initial hessian option           (inhess) =    0
 line search option               (linopt) =    0
 hessian update option            (modupd) =    1
 saddle point option              (modsad) =    0
 initial eigen-mode to follow     (moddir) =    0
 initial variable to follow       (vardir) =    0
 follow first negative mode     (firstneg) =    T
 apply conjugacy                    (opcg) =    F
 source of zmatrix                         =           


          -------------------
          Energy Minimization
          -------------------


 Using diagonal initial Hessian 

          --------
          Step   0
          --------


                         Geometry "geometry" -> "geometry"
                         ---------------------------------

 Output coordinates in angstroms (scale by  1.889725989 to convert to a.u.)

  No.       Tag          Charge          X              Y              Z
 ---- ---------------- ---------- -------------- -------------- --------------
    1 U1                  92.0000     1.98609660     2.43129500    14.07789860
    2 U2                  92.0000     0.99303340     0.00000000    13.28285563
    3 U3                  92.0000     0.00000000     2.43129500    11.61841315
    4 U4                  92.0000     1.98609660     0.00000000    10.21381000
    5 U5                  92.0000     0.99303340     2.43129500     8.54936752
    6 U6                  92.0000     0.00000000     0.00000000     7.75432455
    7 O1                   8.0000     0.49653160     3.03629845    15.57789874
    8 O2                   8.0000     0.49653160     1.82629155    15.57789874

      Lattice Parameters 
      ------------------ 

      lattice vectors in angstroms (scale by  1.889725989 to convert to a.u.)

      a1=<   2.979   0.000   0.000 >
      a2=<   0.000   4.863   0.000 >
      a3=<   0.000   0.000  20.428 >
      a=       2.979 b=      4.863 c=      20.428
      alpha=  90.000 beta=  90.000 gamma=  90.000
      omega=   295.9

      reciprocal lattice vectors in a.u.

      b1=<   1.116   0.000  -0.000 >
      b2=<  -0.000   0.684  -0.000 >
      b3=<   0.000   0.000   0.163 >

      Atomic Mass 
      ----------- 

      U1               238.050800
      U2               238.050800
      U3               238.050800
      U4               238.050800
      U5               238.050800
      U6               238.050800
      O1                15.994910
      O2                15.994910


          **********************************************************
          *                                                        *
          *                   NWPW BAND Calculation                *
          *                                                        *
          *  [(bundled Grassman/Stiefel manifold implementation)]  *
          *                                                        *
          *         [ NorthWest Chemistry implementation ]         *
          *                                                        *
          *                version #1.10   01/31/03                *
          *                                                        *
          *  A pseudopotential plane-wave band structure program   *
          *  with Brillouin zone sampling for optimizing crystals, *
          *  slabs, and polymers.  Developed by Eric J. Bylaska    *
          *  , Edoardo Apra, and Patrick Nichols.                  *
          *                                                        *
          **********************************************************
     >>>  JOB STARTED       AT Sun Mar 10 10:22:40 2013  <<<
          ================ input data ========================
 Brillioun Zone Vectors do not match!

 pseudopotential is not correctly formatted:U.cpp                                             

 pseudopotential is not correctly formatted---bad brillioun zone:U.cpp                                             

 Generated formatted_filename: ./perm/U.cpp
 - Spline fitted, nray=20314 -
 - filtered -
 Brillioun Zone Vectors do not match!

 pseudopotential is not correctly formatted:O.cpp                                             

 pseudopotential is not correctly formatted---bad brillioun zone:O.cpp                                             

 Generated formatted_filename: ./perm/O.cpp
 - Spline fitted, nray=20314 -
 - filtered -
 Error reading psi - bad grid
 nfft :                   64                   96                  420
 ngrid:                   36                   48                  210
 Error reading psi - bad unitcell
  - Ignored if the following  parameter is set
  - set nwpw:psi_nolattice .true.
 Error reading psi - bad grid
 nfft :                   64                   96                  420
 ngrid:                   36                   48                  210
 Error reading psi - bad unitcell
  - Ignored if the following  parameter is set
  - set nwpw:psi_nolattice .true.
 Error reading psi - bad grid
 Error reading psi - bad unitcell
  - Ignored if the following  parameter is set
  - set nwpw:psi_nolattice .true.

 Grid is being converted:
 ------------------------

 To turn off automatic grid conversion:

 set nwpw:psi_nogrid .false.

 old_filename: U6O2-211-parctr.movecs                            
 new_filename: U6O2-211-parctr.movecs                            
 converting  :  64x 96x420 -->  36x 48x210
 converting .... psi:                    1  spin:                    1  nb:                    1
 converting .... psi:                    2  spin:                    1  nb:                    1
 converting .... psi:                    3  spin:                    1  nb:                    1
 converting .... psi:                    4  spin:                    1  nb:                    1
 converting .... psi:                    5  spin:                    1  nb:                    1
 converting .... psi:                    6  spin:                    1  nb:                    1
 converting .... psi:                    7  spin:                    1  nb:                    1
 converting .... psi:                    8  spin:                    1  nb:                    1
 converting .... psi:                    9  spin:                    1  nb:                    1
 converting .... psi:                   10  spin:                    1  nb:                    1
 converting .... psi:                   11  spin:                    1  nb:                    1
 converting .... psi:                   12  spin:                    1  nb:                    1
 converting .... psi:                   13  spin:                    1  nb:                    1
 converting .... psi:                   14  spin:                    1  nb:                    1
 converting .... psi:                   15  spin:                    1  nb:                    1
 converting .... psi:                   16  spin:                    1  nb:                    1
 converting .... psi:                   17  spin:                    1  nb:                    1
 converting .... psi:                   18  spin:                    1  nb:                    1
 converting .... psi:                   19  spin:                    1  nb:                    1
 converting .... psi:                   20  spin:                    1  nb:                    1
 converting .... psi:                   21  spin:                    1  nb:                    1
 converting .... psi:                   22  spin:                    1  nb:                    1
 converting .... psi:                   23  spin:                    1  nb:                    1
 converting .... psi:                   24  spin:                    1  nb:                    1
 converting .... psi:                   25  spin:                    1  nb:                    1
 converting .... psi:                   26  spin:                    1  nb:                    1
 converting .... psi:                   27  spin:                    1  nb:                    1
 converting .... psi:                   28  spin:                    1  nb:                    1
 converting .... psi:                   29  spin:                    1  nb:                    1
 converting .... psi:                   30  spin:                    1  nb:                    1
 converting .... psi:                   31  spin:                    1  nb:                    1
 converting .... psi:                   32  spin:                    1  nb:                    1
 converting .... psi:                   33  spin:                    1  nb:                    1
 converting .... psi:                   34  spin:                    1  nb:                    1
 converting .... psi:                   35  spin:                    1  nb:                    1
 converting .... psi:                   36  spin:                    1  nb:                    1
 converting .... psi:                   37  spin:                    1  nb:                    1
 converting .... psi:                   38  spin:                    1  nb:                    1
 converting .... psi:                   39  spin:                    1  nb:                    1
 converting .... psi:                   40  spin:                    1  nb:                    1
 converting .... psi:                   41  spin:                    1  nb:                    1
 converting .... psi:                   42  spin:                    1  nb:                    1
 converting .... psi:                   43  spin:                    1  nb:                    1
 converting .... psi:                   44  spin:                    1  nb:                    1
 converting .... psi:                   45  spin:                    1  nb:                    1
 converting .... psi:                   46  spin:                    1  nb:                    1
 converting .... psi:                   47  spin:                    1  nb:                    1
 converting .... psi:                   48  spin:                    1  nb:                    1
 converting .... psi:                   49  spin:                    1  nb:                    1
 converting .... psi:                    1  spin:                    2  nb:                    1
 converting .... psi:                    2  spin:                    2  nb:                    1
 converting .... psi:                    3  spin:                    2  nb:                    1
 converting .... psi:                    4  spin:                    2  nb:                    1
 converting .... psi:                    5  spin:                    2  nb:                    1
 converting .... psi:                    6  spin:                    2  nb:                    1
 converting .... psi:                    7  spin:                    2  nb:                    1
 converting .... psi:                    8  spin:                    2  nb:                    1
 converting .... psi:                    9  spin:                    2  nb:                    1
 converting .... psi:                   10  spin:                    2  nb:                    1
 converting .... psi:                   11  spin:                    2  nb:                    1
 converting .... psi:                   12  spin:                    2  nb:                    1
 converting .... psi:                   13  spin:                    2  nb:                    1
 converting .... psi:                   14  spin:                    2  nb:                    1
 converting .... psi:                   15  spin:                    2  nb:                    1
 converting .... psi:                   16  spin:                    2  nb:                    1
 converting .... psi:                   17  spin:                    2  nb:                    1
 converting .... psi:                   18  spin:                    2  nb:                    1
 converting .... psi:                   19  spin:                    2  nb:                    1
 converting .... psi:                   20  spin:                    2  nb:                    1
 converting .... psi:                   21  spin:                    2  nb:                    1
 converting .... psi:                   22  spin:                    2  nb:                    1
 converting .... psi:                   23  spin:                    2  nb:                    1
 converting .... psi:                   24  spin:                    2  nb:                    1
 converting .... psi:                   25  spin:                    2  nb:                    1
 converting .... psi:                   26  spin:                    2  nb:                    1
 converting .... psi:                   27  spin:                    2  nb:                    1
 converting .... psi:                   28  spin:                    2  nb:                    1
 converting .... psi:                   29  spin:                    2  nb:                    1
 converting .... psi:                   30  spin:                    2  nb:                    1
 converting .... psi:                   31  spin:                    2  nb:                    1
 converting .... psi:                   32  spin:                    2  nb:                    1
 converting .... psi:                   33  spin:                    2  nb:                    1
 converting .... psi:                   34  spin:                    2  nb:                    1
 converting .... psi:                   35  spin:                    2  nb:                    1
 converting .... psi:                   36  spin:                    2  nb:                    1
 converting .... psi:                   37  spin:                    2  nb:                    1
 converting .... psi:                   38  spin:                    2  nb:                    1
 converting .... psi:                   39  spin:                    2  nb:                    1
 converting .... psi:                   40  spin:                    2  nb:                    1
 converting .... psi:                   41  spin:                    2  nb:                    1
 converting .... psi:                   42  spin:                    2  nb:                    1
 converting .... psi:                   43  spin:                    2  nb:                    1
 converting .... psi:                   44  spin:                    2  nb:                    1
 converting .... psi:                   45  spin:                    2  nb:                    1
 converting .... psi:                   46  spin:                    2  nb:                    1
 converting .... psi:                   47  spin:                    2  nb:                    1
 converting .... psi:                    1  spin:                    1  nb:                    2
 converting .... psi:                    2  spin:                    1  nb:                    2
 converting .... psi:                    3  spin:                    1  nb:                    2
 converting .... psi:                    4  spin:                    1  nb:                    2
 converting .... psi:                    5  spin:                    1  nb:                    2
 converting .... psi:                    6  spin:                    1  nb:                    2
 converting .... psi:                    7  spin:                    1  nb:                    2
 converting .... psi:                    8  spin:                    1  nb:                    2
 converting .... psi:                    9  spin:                    1  nb:                    2
 converting .... psi:                   10  spin:                    1  nb:                    2
 converting .... psi:                   11  spin:                    1  nb:                    2
 converting .... psi:                   12  spin:                    1  nb:                    2
 converting .... psi:                   13  spin:                    1  nb:                    2
 converting .... psi:                   14  spin:                    1  nb:                    2
 converting .... psi:                   15  spin:                    1  nb:                    2
 converting .... psi:                   16  spin:                    1  nb:                    2
 converting .... psi:                   17  spin:                    1  nb:                    2
 converting .... psi:                   18  spin:                    1  nb:                    2
 converting .... psi:                   19  spin:                    1  nb:                    2
 converting .... psi:                   20  spin:                    1  nb:                    2
 converting .... psi:                   21  spin:                    1  nb:                    2
 converting .... psi:                   22  spin:                    1  nb:                    2
 converting .... psi:                   23  spin:                    1  nb:                    2
 converting .... psi:                   24  spin:                    1  nb:                    2
 converting .... psi:                   25  spin:                    1  nb:                    2
 converting .... psi:                   26  spin:                    1  nb:                    2
 converting .... psi:                   27  spin:                    1  nb:                    2
 converting .... psi:                   28  spin:                    1  nb:                    2
 converting .... psi:                   29  spin:                    1  nb:                    2
 converting .... psi:                   30  spin:                    1  nb:                    2
 converting .... psi:                   31  spin:                    1  nb:                    2
 converting .... psi:                   32  spin:                    1  nb:                    2
 converting .... psi:                   33  spin:                    1  nb:                    2
 converting .... psi:                   34  spin:                    1  nb:                    2
 converting .... psi:                   35  spin:                    1  nb:                    2
 converting .... psi:                   36  spin:                    1  nb:                    2
 converting .... psi:                   37  spin:                    1  nb:                    2
 converting .... psi:                   38  spin:                    1  nb:                    2
 converting .... psi:                   39  spin:                    1  nb:                    2
 converting .... psi:                   40  spin:                    1  nb:                    2
 converting .... psi:                   41  spin:                    1  nb:                    2
 converting .... psi:                   42  spin:                    1  nb:                    2
 converting .... psi:                   43  spin:                    1  nb:                    2
 converting .... psi:                   44  spin:                    1  nb:                    2
 converting .... psi:                   45  spin:                    1  nb:                    2
 converting .... psi:                   46  spin:                    1  nb:                    2
 converting .... psi:                   47  spin:                    1  nb:                    2
 converting .... psi:                   48  spin:                    1  nb:                    2
 converting .... psi:                   49  spin:                    1  nb:                    2
 converting .... psi:                    1  spin:                    2  nb:                    2
 converting .... psi:                    2  spin:                    2  nb:                    2
 converting .... psi:                    3  spin:                    2  nb:                    2
 converting .... psi:                    4  spin:                    2  nb:                    2
 converting .... psi:                    5  spin:                    2  nb:                    2
 converting .... psi:                    6  spin:                    2  nb:                    2
 converting .... psi:                    7  spin:                    2  nb:                    2
 converting .... psi:                    8  spin:                    2  nb:                    2
 converting .... psi:                    9  spin:                    2  nb:                    2
 converting .... psi:                   10  spin:                    2  nb:                    2
 converting .... psi:                   11  spin:                    2  nb:                    2
 converting .... psi:                   12  spin:                    2  nb:                    2
 converting .... psi:                   13  spin:                    2  nb:                    2
 converting .... psi:                   14  spin:                    2  nb:                    2
 converting .... psi:                   15  spin:                    2  nb:                    2
 converting .... psi:                   16  spin:                    2  nb:                    2
 converting .... psi:                   17  spin:                    2  nb:                    2
 converting .... psi:                   18  spin:                    2  nb:                    2
 converting .... psi:                   19  spin:                    2  nb:                    2
 converting .... psi:                   20  spin:                    2  nb:                    2
 converting .... psi:                   21  spin:                    2  nb:                    2
 converting .... psi:                   22  spin:                    2  nb:                    2
 converting .... psi:                   23  spin:                    2  nb:                    2
 converting .... psi:                   24  spin:                    2  nb:                    2
 converting .... psi:                   25  spin:                    2  nb:                    2
 converting .... psi:                   26  spin:                    2  nb:                    2
 converting .... psi:                   27  spin:                    2  nb:                    2
 converting .... psi:                   28  spin:                    2  nb:                    2
 converting .... psi:                   29  spin:                    2  nb:                    2
 converting .... psi:                   30  spin:                    2  nb:                    2
 converting .... psi:                   31  spin:                    2  nb:                    2
 converting .... psi:                   32  spin:                    2  nb:                    2
 converting .... psi:                   33  spin:                    2  nb:                    2
 converting .... psi:                   34  spin:                    2  nb:                    2
 converting .... psi:                   35  spin:                    2  nb:                    2
 converting .... psi:                   36  spin:                    2  nb:                    2
 converting .... psi:                   37  spin:                    2  nb:                    2
 converting .... psi:                   38  spin:                    2  nb:                    2
 converting .... psi:                   39  spin:                    2  nb:                    2
 converting .... psi:                   40  spin:                    2  nb:                    2
 converting .... psi:                   41  spin:                    2  nb:                    2
 converting .... psi:                   42  spin:                    2  nb:                    2
 converting .... psi:                   43  spin:                    2  nb:                    2
 converting .... psi:                   44  spin:                    2  nb:                    2
 converting .... psi:                   45  spin:                    2  nb:                    2
 converting .... psi:                   46  spin:                    2  nb:                    2
 converting .... psi:                   47  spin:                    2  nb:                    2
 converting .... psi:                    1  spin:                    1  nb:                    3
 converting .... psi:                    2  spin:                    1  nb:                    3
 converting .... psi:                    3  spin:                    1  nb:                    3
 converting .... psi:                    4  spin:                    1  nb:                    3
 converting .... psi:                    5  spin:                    1  nb:                    3
 converting .... psi:                    6  spin:                    1  nb:                    3
 converting .... psi:                    7  spin:                    1  nb:                    3
 converting .... psi:                    8  spin:                    1  nb:                    3
 converting .... psi:                    9  spin:                    1  nb:                    3
 converting .... psi:                   10  spin:                    1  nb:                    3
 converting .... psi:                   11  spin:                    1  nb:                    3
 converting .... psi:                   12  spin:                    1  nb:                    3
 converting .... psi:                   13  spin:                    1  nb:                    3
 converting .... psi:                   14  spin:                    1  nb:                    3
 converting .... psi:                   15  spin:                    1  nb:                    3
 converting .... psi:                   16  spin:                    1  nb:                    3
 converting .... psi:                   17  spin:                    1  nb:                    3
 converting .... psi:                   18  spin:                    1  nb:                    3
 converting .... psi:                   19  spin:                    1  nb:                    3
 converting .... psi:                   20  spin:                    1  nb:                    3
 converting .... psi:                   21  spin:                    1  nb:                    3
 converting .... psi:                   22  spin:                    1  nb:                    3
 converting .... psi:                   23  spin:                    1  nb:                    3
 converting .... psi:                   24  spin:                    1  nb:                    3
 converting .... psi:                   25  spin:                    1  nb:                    3
 converting .... psi:                   26  spin:                    1  nb:                    3
 converting .... psi:                   27  spin:                    1  nb:                    3
 converting .... psi:                   28  spin:                    1  nb:                    3
 converting .... psi:                   29  spin:                    1  nb:                    3
 converting .... psi:                   30  spin:                    1  nb:                    3
 converting .... psi:                   31  spin:                    1  nb:                    3
 converting .... psi:                   32  spin:                    1  nb:                    3
 converting .... psi:                   33  spin:                    1  nb:                    3
 converting .... psi:                   34  spin:                    1  nb:                    3
 converting .... psi:                   35  spin:                    1  nb:                    3
 converting .... psi:                   36  spin:                    1  nb:                    3
 converting .... psi:                   37  spin:                    1  nb:                    3
 converting .... psi:                   38  spin:                    1  nb:                    3
 converting .... psi:                   39  spin:                    1  nb:                    3
 converting .... psi:                   40  spin:                    1  nb:                    3
 converting .... psi:                   41  spin:                    1  nb:                    3
 converting .... psi:                   42  spin:                    1  nb:                    3
 converting .... psi:                   43  spin:                    1  nb:                    3
 converting .... psi:                   44  spin:                    1  nb:                    3
 converting .... psi:                   45  spin:                    1  nb:                    3
 converting .... psi:                   46  spin:                    1  nb:                    3
 converting .... psi:                   47  spin:                    1  nb:                    3
 converting .... psi:                   48  spin:                    1  nb:                    3
 converting .... psi:                   49  spin:                    1  nb:                    3
 converting .... psi:                    1  spin:                    2  nb:                    3
 converting .... psi:                    2  spin:                    2  nb:                    3
 converting .... psi:                    3  spin:                    2  nb:                    3
 converting .... psi:                    4  spin:                    2  nb:                    3
 converting .... psi:                    5  spin:                    2  nb:                    3
 converting .... psi:                    6  spin:                    2  nb:                    3
 converting .... psi:                    7  spin:                    2  nb:                    3
 converting .... psi:                    8  spin:                    2  nb:                    3
 converting .... psi:                    9  spin:                    2  nb:                    3
 converting .... psi:                   10  spin:                    2  nb:                    3
 converting .... psi:                   11  spin:                    2  nb:                    3
 converting .... psi:                   12  spin:                    2  nb:                    3
 converting .... psi:                   13  spin:                    2  nb:                    3
 converting .... psi:                   14  spin:                    2  nb:                    3
 converting .... psi:                   15  spin:                    2  nb:                    3
 converting .... psi:                   16  spin:                    2  nb:                    3
 converting .... psi:                   17  spin:                    2  nb:                    3
 converting .... psi:                   18  spin:                    2  nb:                    3
 converting .... psi:                   19  spin:                    2  nb:                    3
 converting .... psi:                   20  spin:                    2  nb:                    3
 converting .... psi:                   21  spin:                    2  nb:                    3
 converting .... psi:                   22  spin:                    2  nb:                    3
 converting .... psi:                   23  spin:                    2  nb:                    3
 converting .... psi:                   24  spin:                    2  nb:                    3
 converting .... psi:                   25  spin:                    2  nb:                    3
 converting .... psi:                   26  spin:                    2  nb:                    3
 converting .... psi:                   27  spin:                    2  nb:                    3
 converting .... psi:                   28  spin:                    2  nb:                    3
 converting .... psi:                   29  spin:                    2  nb:                    3
 converting .... psi:                   30  spin:                    2  nb:                    3
 converting .... psi:                   31  spin:                    2  nb:                    3
 converting .... psi:                   32  spin:                    2  nb:                    3
 converting .... psi:                   33  spin:                    2  nb:                    3
 converting .... psi:                   34  spin:                    2  nb:                    3
 converting .... psi:                   35  spin:                    2  nb:                    3
 converting .... psi:                   36  spin:                    2  nb:                    3
 converting .... psi:                   37  spin:                    2  nb:                    3
 converting .... psi:                   38  spin:                    2  nb:                    3
 converting .... psi:                   39  spin:                    2  nb:                    3
 converting .... psi:                   40  spin:                    2  nb:                    3
 converting .... psi:                   41  spin:                    2  nb:                    3
 converting .... psi:                   42  spin:                    2  nb:                    3
 converting .... psi:                   43  spin:                    2  nb:                    3
 converting .... psi:                   44  spin:                    2  nb:                    3
 converting .... psi:                   45  spin:                    2  nb:                    3
 converting .... psi:                   46  spin:                    2  nb:                    3
 converting .... psi:                   47  spin:                    2  nb:                    3
 converting .... psi:                    1  spin:                    1  nb:                    4
 converting .... psi:                    2  spin:                    1  nb:                    4
 converting .... psi:                    3  spin:                    1  nb:                    4
 converting .... psi:                    4  spin:                    1  nb:                    4
 converting .... psi:                    5  spin:                    1  nb:                    4
 converting .... psi:                    6  spin:                    1  nb:                    4
 converting .... psi:                    7  spin:                    1  nb:                    4
 converting .... psi:                    8  spin:                    1  nb:                    4
 converting .... psi:                    9  spin:                    1  nb:                    4
 converting .... psi:                   10  spin:                    1  nb:                    4
 converting .... psi:                   11  spin:                    1  nb:                    4
 converting .... psi:                   12  spin:                    1  nb:                    4
 converting .... psi:                   13  spin:                    1  nb:                    4
 converting .... psi:                   14  spin:                    1  nb:                    4
 converting .... psi:                   15  spin:                    1  nb:                    4
 converting .... psi:                   16  spin:                    1  nb:                    4
 converting .... psi:                   17  spin:                    1  nb:                    4
 converting .... psi:                   18  spin:                    1  nb:                    4
 converting .... psi:                   19  spin:                    1  nb:                    4
 converting .... psi:                   20  spin:                    1  nb:                    4
 converting .... psi:                   21  spin:                    1  nb:                    4
 converting .... psi:                   22  spin:                    1  nb:                    4
 converting .... psi:                   23  spin:                    1  nb:                    4
 converting .... psi:                   24  spin:                    1  nb:                    4
 converting .... psi:                   25  spin:                    1  nb:                    4
 converting .... psi:                   26  spin:                    1  nb:                    4
 converting .... psi:                   27  spin:                    1  nb:                    4
 converting .... psi:                   28  spin:                    1  nb:                    4
 converting .... psi:                   29  spin:                    1  nb:                    4
 converting .... psi:                   30  spin:                    1  nb:                    4
 converting .... psi:                   31  spin:                    1  nb:                    4
 converting .... psi:                   32  spin:                    1  nb:                    4
 converting .... psi:                   33  spin:                    1  nb:                    4
 converting .... psi:                   34  spin:                    1  nb:                    4
 converting .... psi:                   35  spin:                    1  nb:                    4
 converting .... psi:                   36  spin:                    1  nb:                    4
 converting .... psi:                   37  spin:                    1  nb:                    4
 converting .... psi:                   38  spin:                    1  nb:                    4
 converting .... psi:                   39  spin:                    1  nb:                    4
 converting .... psi:                   40  spin:                    1  nb:                    4
 converting .... psi:                   41  spin:                    1  nb:                    4
 converting .... psi:                   42  spin:                    1  nb:                    4
 converting .... psi:                   43  spin:                    1  nb:                    4
 converting .... psi:                   44  spin:                    1  nb:                    4
 converting .... psi:                   45  spin:                    1  nb:                    4
 converting .... psi:                   46  spin:                    1  nb:                    4
 converting .... psi:                   47  spin:                    1  nb:                    4
 converting .... psi:                   48  spin:                    1  nb:                    4
 converting .... psi:                   49  spin:                    1  nb:                    4
 converting .... psi:                    1  spin:                    2  nb:                    4
 converting .... psi:                    2  spin:                    2  nb:                    4
 converting .... psi:                    3  spin:                    2  nb:                    4
 converting .... psi:                    4  spin:                    2  nb:                    4
 converting .... psi:                    5  spin:                    2  nb:                    4
 converting .... psi:                    6  spin:                    2  nb:                    4
 converting .... psi:                    7  spin:                    2  nb:                    4
 converting .... psi:                    8  spin:                    2  nb:                    4
 converting .... psi:                    9  spin:                    2  nb:                    4
 converting .... psi:                   10  spin:                    2  nb:                    4
 converting .... psi:                   11  spin:                    2  nb:                    4
 converting .... psi:                   12  spin:                    2  nb:                    4
 converting .... psi:                   13  spin:                    2  nb:                    4
 converting .... psi:                   14  spin:                    2  nb:                    4
 converting .... psi:                   15  spin:                    2  nb:                    4
 converting .... psi:                   16  spin:                    2  nb:                    4
 converting .... psi:                   17  spin:                    2  nb:                    4
 converting .... psi:                   18  spin:                    2  nb:                    4
 converting .... psi:                   19  spin:                    2  nb:                    4
 converting .... psi:                   20  spin:                    2  nb:                    4
 converting .... psi:                   21  spin:                    2  nb:                    4
 converting .... psi:                   22  spin:                    2  nb:                    4
 converting .... psi:                   23  spin:                    2  nb:                    4
 converting .... psi:                   24  spin:                    2  nb:                    4
 converting .... psi:                   25  spin:                    2  nb:                    4
 converting .... psi:                   26  spin:                    2  nb:                    4
 converting .... psi:                   27  spin:                    2  nb:                    4
 converting .... psi:                   28  spin:                    2  nb:                    4
 converting .... psi:                   29  spin:                    2  nb:                    4
 converting .... psi:                   30  spin:                    2  nb:                    4
 converting .... psi:                   31  spin:                    2  nb:                    4
 converting .... psi:                   32  spin:                    2  nb:                    4
 converting .... psi:                   33  spin:                    2  nb:                    4
 converting .... psi:                   34  spin:                    2  nb:                    4
 converting .... psi:                   35  spin:                    2  nb:                    4
 converting .... psi:                   36  spin:                    2  nb:                    4
 converting .... psi:                   37  spin:                    2  nb:                    4
 converting .... psi:                   38  spin:                    2  nb:                    4
 converting .... psi:                   39  spin:                    2  nb:                    4
 converting .... psi:                   40  spin:                    2  nb:                    4
 converting .... psi:                   41  spin:                    2  nb:                    4
 converting .... psi:                   42  spin:                    2  nb:                    4
 converting .... psi:                   43  spin:                    2  nb:                    4
 converting .... psi:                   44  spin:                    2  nb:                    4
 converting .... psi:                   45  spin:                    2  nb:                    4
 converting .... psi:                   46  spin:                    2  nb:                    4
 converting .... psi:                   47  spin:                    2  nb:                    4
 converting .... psi:                    1  spin:                    1  nb:                    5
 converting .... psi:                    2  spin:                    1  nb:                    5
 converting .... psi:                    3  spin:                    1  nb:                    5
 converting .... psi:                    4  spin:                    1  nb:                    5
 converting .... psi:                    5  spin:                    1  nb:                    5
 converting .... psi:                    6  spin:                    1  nb:                    5
 converting .... psi:                    7  spin:                    1  nb:                    5
 converting .... psi:                    8  spin:                    1  nb:                    5
 converting .... psi:                    9  spin:                    1  nb:                    5
 converting .... psi:                   10  spin:                    1  nb:                    5
 converting .... psi:                   11  spin:                    1  nb:                    5
 converting .... psi:                   12  spin:                    1  nb:                    5
 converting .... psi:                   13  spin:                    1  nb:                    5
 converting .... psi:                   14  spin:                    1  nb:                    5
 converting .... psi:                   15  spin:                    1  nb:                    5
 converting .... psi:                   16  spin:                    1  nb:                    5
 converting .... psi:                   17  spin:                    1  nb:                    5
 converting .... psi:                   18  spin:                    1  nb:                    5
 converting .... psi:                   19  spin:                    1  nb:                    5
 converting .... psi:                   20  spin:                    1  nb:                    5
 converting .... psi:                   21  spin:                    1  nb:                    5
 converting .... psi:                   22  spin:                    1  nb:                    5
 converting .... psi:                   23  spin:                    1  nb:                    5
 converting .... psi:                   24  spin:                    1  nb:                    5
 converting .... psi:                   25  spin:                    1  nb:                    5
 converting .... psi:                   26  spin:                    1  nb:                    5
 converting .... psi:                   27  spin:                    1  nb:                    5
 converting .... psi:                   28  spin:                    1  nb:                    5
 converting .... psi:                   29  spin:                    1  nb:                    5
 converting .... psi:                   30  spin:                    1  nb:                    5
 converting .... psi:                   31  spin:                    1  nb:                    5
 converting .... psi:                   32  spin:                    1  nb:                    5
 converting .... psi:                   33  spin:                    1  nb:                    5
 converting .... psi:                   34  spin:                    1  nb:                    5
 converting .... psi:                   35  spin:                    1  nb:                    5
 converting .... psi:                   36  spin:                    1  nb:                    5
 converting .... psi:                   37  spin:                    1  nb:                    5
 converting .... psi:                   38  spin:                    1  nb:                    5
 converting .... psi:                   39  spin:                    1  nb:                    5
 converting .... psi:                   40  spin:                    1  nb:                    5
 converting .... psi:                   41  spin:                    1  nb:                    5
 converting .... psi:                   42  spin:                    1  nb:                    5
 converting .... psi:                   43  spin:                    1  nb:                    5
 converting .... psi:                   44  spin:                    1  nb:                    5
 converting .... psi:                   45  spin:                    1  nb:                    5
 converting .... psi:                   46  spin:                    1  nb:                    5
 converting .... psi:                   47  spin:                    1  nb:                    5
 converting .... psi:                   48  spin:                    1  nb:                    5
 converting .... psi:                   49  spin:                    1  nb:                    5
 converting .... psi:                    1  spin:                    2  nb:                    5
 converting .... psi:                    2  spin:                    2  nb:                    5
 converting .... psi:                    3  spin:                    2  nb:                    5
 converting .... psi:                    4  spin:                    2  nb:                    5
 converting .... psi:                    5  spin:                    2  nb:                    5
 converting .... psi:                    6  spin:                    2  nb:                    5
 converting .... psi:                    7  spin:                    2  nb:                    5
 converting .... psi:                    8  spin:                    2  nb:                    5
 converting .... psi:                    9  spin:                    2  nb:                    5
 converting .... psi:                   10  spin:                    2  nb:                    5
 converting .... psi:                   11  spin:                    2  nb:                    5
 converting .... psi:                   12  spin:                    2  nb:                    5
 converting .... psi:                   13  spin:                    2  nb:                    5
 converting .... psi:                   14  spin:                    2  nb:                    5
 converting .... psi:                   15  spin:                    2  nb:                    5
 converting .... psi:                   16  spin:                    2  nb:                    5
 converting .... psi:                   17  spin:                    2  nb:                    5
 converting .... psi:                   18  spin:                    2  nb:                    5
 converting .... psi:                   19  spin:                    2  nb:                    5
 converting .... psi:                   20  spin:                    2  nb:                    5
 converting .... psi:                   21  spin:                    2  nb:                    5
 converting .... psi:                   22  spin:                    2  nb:                    5
 converting .... psi:                   23  spin:                    2  nb:                    5
 converting .... psi:                   24  spin:                    2  nb:                    5
 converting .... psi:                   25  spin:                    2  nb:                    5
 converting .... psi:                   26  spin:                    2  nb:                    5
 converting .... psi:                   27  spin:                    2  nb:                    5
 converting .... psi:                   28  spin:                    2  nb:                    5
 converting .... psi:                   29  spin:                    2  nb:                    5
 converting .... psi:                   30  spin:                    2  nb:                    5
 converting .... psi:                   31  spin:                    2  nb:                    5
 converting .... psi:                   32  spin:                    2  nb:                    5
 converting .... psi:                   33  spin:                    2  nb:                    5
 converting .... psi:                   34  spin:                    2  nb:                    5
 converting .... psi:                   35  spin:                    2  nb:                    5
 converting .... psi:                   36  spin:                    2  nb:                    5
 converting .... psi:                   37  spin:                    2  nb:                    5
 converting .... psi:                   38  spin:                    2  nb:                    5
 converting .... psi:                   39  spin:                    2  nb:                    5
 converting .... psi:                   40  spin:                    2  nb:                    5
 converting .... psi:                   41  spin:                    2  nb:                    5
 converting .... psi:                   42  spin:                    2  nb:                    5
 converting .... psi:                   43  spin:                    2  nb:                    5
 converting .... psi:                   44  spin:                    2  nb:                    5
 converting .... psi:                   45  spin:                    2  nb:                    5
 converting .... psi:                   46  spin:                    2  nb:                    5
 converting .... psi:                   47  spin:                    2  nb:                    5
 converting .... psi:                    1  spin:                    1  nb:                    6
 converting .... psi:                    2  spin:                    1  nb:                    6
 converting .... psi:                    3  spin:                    1  nb:                    6
 converting .... psi:                    4  spin:                    1  nb:                    6
 converting .... psi:                    5  spin:                    1  nb:                    6
 converting .... psi:                    6  spin:                    1  nb:                    6
 converting .... psi:                    7  spin:                    1  nb:                    6
 converting .... psi:                    8  spin:                    1  nb:                    6
 converting .... psi:                    9  spin:                    1  nb:                    6
 converting .... psi:                   10  spin:                    1  nb:                    6
 converting .... psi:                   11  spin:                    1  nb:                    6
 converting .... psi:                   12  spin:                    1  nb:                    6
 converting .... psi:                   13  spin:                    1  nb:                    6
 converting .... psi:                   14  spin:                    1  nb:                    6
 converting .... psi:                   15  spin:                    1  nb:                    6
 converting .... psi:                   16  spin:                    1  nb:                    6
 converting .... psi:                   17  spin:                    1  nb:                    6
 converting .... psi:                   18  spin:                    1  nb:                    6
 converting .... psi:                   19  spin:                    1  nb:                    6
 converting .... psi:                   20  spin:                    1  nb:                    6
 converting .... psi:                   21  spin:                    1  nb:                    6
 converting .... psi:                   22  spin:                    1  nb:                    6
 converting .... psi:                   23  spin:                    1  nb:                    6
 converting .... psi:                   24  spin:                    1  nb:                    6
 converting .... psi:                   25  spin:                    1  nb:                    6
 converting .... psi:                   26  spin:                    1  nb:                    6
 converting .... psi:                   27  spin:                    1  nb:                    6
 converting .... psi:                   28  spin:                    1  nb:                    6
 converting .... psi:                   29  spin:                    1  nb:                    6
 converting .... psi:                   30  spin:                    1  nb:                    6
 converting .... psi:                   31  spin:                    1  nb:                    6
 converting .... psi:                   32  spin:                    1  nb:                    6
 converting .... psi:                   33  spin:                    1  nb:                    6
 converting .... psi:                   34  spin:                    1  nb:                    6
 converting .... psi:                   35  spin:                    1  nb:                    6
 converting .... psi:                   36  spin:                    1  nb:                    6
 converting .... psi:                   37  spin:                    1  nb:                    6
 converting .... psi:                   38  spin:                    1  nb:                    6
 converting .... psi:                   39  spin:                    1  nb:                    6
 converting .... psi:                   40  spin:                    1  nb:                    6
 converting .... psi:                   41  spin:                    1  nb:                    6
 converting .... psi:                   42  spin:                    1  nb:                    6
 converting .... psi:                   43  spin:                    1  nb:                    6
 converting .... psi:                   44  spin:                    1  nb:                    6
 converting .... psi:                   45  spin:                    1  nb:                    6
 converting .... psi:                   46  spin:                    1  nb:                    6
 converting .... psi:                   47  spin:                    1  nb:                    6
 converting .... psi:                   48  spin:                    1  nb:                    6
 converting .... psi:                   49  spin:                    1  nb:                    6
 converting .... psi:                    1  spin:                    2  nb:                    6
 converting .... psi:                    2  spin:                    2  nb:                    6
 converting .... psi:                    3  spin:                    2  nb:                    6
 converting .... psi:                    4  spin:                    2  nb:                    6
 converting .... psi:                    5  spin:                    2  nb:                    6
 converting .... psi:                    6  spin:                    2  nb:                    6
 converting .... psi:                    7  spin:                    2  nb:                    6
 converting .... psi:                    8  spin:                    2  nb:                    6
 converting .... psi:                    9  spin:                    2  nb:                    6
 converting .... psi:                   10  spin:                    2  nb:                    6
 converting .... psi:                   11  spin:                    2  nb:                    6
 converting .... psi:                   12  spin:                    2  nb:                    6
 converting .... psi:                   13  spin:                    2  nb:                    6
 converting .... psi:                   14  spin:                    2  nb:                    6
 converting .... psi:                   15  spin:                    2  nb:                    6
 converting .... psi:                   16  spin:                    2  nb:                    6
 converting .... psi:                   17  spin:                    2  nb:                    6
 converting .... psi:                   18  spin:                    2  nb:                    6
 converting .... psi:                   19  spin:                    2  nb:                    6
 converting .... psi:                   20  spin:                    2  nb:                    6
 converting .... psi:                   21  spin:                    2  nb:                    6
 converting .... psi:                   22  spin:                    2  nb:                    6
 converting .... psi:                   23  spin:                    2  nb:                    6
 converting .... psi:                   24  spin:                    2  nb:                    6
 converting .... psi:                   25  spin:                    2  nb:                    6
 converting .... psi:                   26  spin:                    2  nb:                    6
 converting .... psi:                   27  spin:                    2  nb:                    6
 converting .... psi:                   28  spin:                    2  nb:                    6
 converting .... psi:                   29  spin:                    2  nb:                    6
 converting .... psi:                   30  spin:                    2  nb:                    6
 converting .... psi:                   31  spin:                    2  nb:                    6
 converting .... psi:                   32  spin:                    2  nb:                    6
 converting .... psi:                   33  spin:                    2  nb:                    6
 converting .... psi:                   34  spin:                    2  nb:                    6
 converting .... psi:                   35  spin:                    2  nb:                    6
 converting .... psi:                   36  spin:                    2  nb:                    6
 converting .... psi:                   37  spin:                    2  nb:                    6
 converting .... psi:                   38  spin:                    2  nb:                    6
 converting .... psi:                   39  spin:                    2  nb:                    6
 converting .... psi:                   40  spin:                    2  nb:                    6
 converting .... psi:                   41  spin:                    2  nb:                    6
 converting .... psi:                   42  spin:                    2  nb:                    6
 converting .... psi:                   43  spin:                    2  nb:                    6
 converting .... psi:                   44  spin:                    2  nb:                    6
 converting .... psi:                   45  spin:                    2  nb:                    6
 converting .... psi:                   46  spin:                    2  nb:                    6
 converting .... psi:                   47  spin:                    2  nb:                    6
 converting .... psi:                    1  spin:                    1  nb:                    7
 converting .... psi:                    2  spin:                    1  nb:                    7
 converting .... psi:                    3  spin:                    1  nb:                    7
 converting .... psi:                    4  spin:                    1  nb:                    7
 converting .... psi:                    5  spin:                    1  nb:                    7
 converting .... psi:                    6  spin:                    1  nb:                    7
 converting .... psi:                    7  spin:                    1  nb:                    7
 converting .... psi:                    8  spin:                    1  nb:                    7
 converting .... psi:                    9  spin:                    1  nb:                    7
 converting .... psi:                   10  spin:                    1  nb:                    7
 converting .... psi:                   11  spin:                    1  nb:                    7
 converting .... psi:                   12  spin:                    1  nb:                    7
 converting .... psi:                   13  spin:                    1  nb:                    7
 converting .... psi:                   14  spin:                    1  nb:                    7
 converting .... psi:                   15  spin:                    1  nb:                    7
 converting .... psi:                   16  spin:                    1  nb:                    7
 converting .... psi:                   17  spin:                    1  nb:                    7
 converting .... psi:                   18  spin:                    1  nb:                    7
 converting .... psi:                   19  spin:                    1  nb:                    7
 converting .... psi:                   20  spin:                    1  nb:                    7
 converting .... psi:                   21  spin:                    1  nb:                    7
 converting .... psi:                   22  spin:                    1  nb:                    7
 converting .... psi:                   23  spin:                    1  nb:                    7
 converting .... psi:                   24  spin:                    1  nb:                    7
 converting .... psi:                   25  spin:                    1  nb:                    7
 converting .... psi:                   26  spin:                    1  nb:                    7
 converting .... psi:                   27  spin:                    1  nb:                    7
 converting .... psi:                   28  spin:                    1  nb:                    7
 converting .... psi:                   29  spin:                    1  nb:                    7
 converting .... psi:                   30  spin:                    1  nb:                    7
 converting .... psi:                   31  spin:                    1  nb:                    7
 converting .... psi:                   32  spin:                    1  nb:                    7
 converting .... psi:                   33  spin:                    1  nb:                    7
 converting .... psi:                   34  spin:                    1  nb:                    7
 converting .... psi:                   35  spin:                    1  nb:                    7
 converting .... psi:                   36  spin:                    1  nb:                    7
 converting .... psi:                   37  spin:                    1  nb:                    7
 converting .... psi:                   38  spin:                    1  nb:                    7
 converting .... psi:                   39  spin:                    1  nb:                    7
 converting .... psi:                   40  spin:                    1  nb:                    7
 converting .... psi:                   41  spin:                    1  nb:                    7
 converting .... psi:                   42  spin:                    1  nb:                    7
 converting .... psi:                   43  spin:                    1  nb:                    7
 converting .... psi:                   44  spin:                    1  nb:                    7
 converting .... psi:                   45  spin:                    1  nb:                    7
 converting .... psi:                   46  spin:                    1  nb:                    7
 converting .... psi:                   47  spin:                    1  nb:                    7
 converting .... psi:                   48  spin:                    1  nb:                    7
 converting .... psi:                   49  spin:                    1  nb:                    7
 converting .... psi:                    1  spin:                    2  nb:                    7
 converting .... psi:                    2  spin:                    2  nb:                    7
 converting .... psi:                    3  spin:                    2  nb:                    7
 converting .... psi:                    4  spin:                    2  nb:                    7
 converting .... psi:                    5  spin:                    2  nb:                    7
 converting .... psi:                    6  spin:                    2  nb:                    7
 converting .... psi:                    7  spin:                    2  nb:                    7
 converting .... psi:                    8  spin:                    2  nb:                    7
 converting .... psi:                    9  spin:                    2  nb:                    7
[...]
10:10:control_num_kvectors_structure: failed:: 0
(rank:10 hostname:taub503 pid:25837):ARMCI DASSERT fail. ../../ga-5-1/armci/src/common/armci.c:ARMCI_Error():208 cond:0
(rank:11 hostname:taub503 pid:25838):ARMCI DASSERT fail. ../../ga-5-1/armci/src/common/armci.c:ARMCI_Error():208 cond:0
Last System Error Message from Task 11:: Numerical result out of range
7:7:control_num_kvectors_structure: failed:: 0
(rank:7 hostname:taub503 pid:25834):ARMCI DASSERT fail. ../../ga-5-1/armci/src/common/armci.c:ARMCI_Error():208 cond:0
Last System Error Message from Task 7:: Numerical result out of range
8:8:control_num_kvectors_structure: failed:: 0
(rank:8 hostname:taub503 pid:25835):ARMCI DASSERT fail. ../../ga-5-1/armci/src/common/armci.c:ARMCI_Error():208 cond:0
Last System Error Message from Task 8:: Numerical result out of range
9:9:control_num_kvectors_structure: failed:: 0
(rank:9 hostname:taub503 pid:25836):ARMCI DASSERT fail. ../../ga-5-1/armci/src/common/armci.c:ARMCI_Error():208 cond:0
Last System Error Message from Task 9:: Numerical result out of range
Last System Error Message from Task 10:: Numerical result out of range
application called MPI_Abort(comm=0x84000003, 0) - process 33
application called MPI_Abort(comm=0x84000003, 0) - process 202
application called MPI_Abort(comm=0x84000003, 0) - process 116
application called MPI_Abort(comm=0x84000003, 0) - process 125
application called MPI_Abort(comm=0x84000003, 0) - process 143
application called MPI_Abort(comm=0x84000003, 0) - process 105
application called MPI_Abort(comm=0x84000003, 0) - process 87
application called MPI_Abort(comm=0x84000003, 0) - process 80
application called MPI_Abort(comm=0x84000003, 0) - process 160
application called MPI_Abort(comm=0x84000003, 0) - process 38
application called MPI_Abort(comm=0x84000003, 0) - process 251
application called MPI_Abort(comm=0x84000003, 0) - process 40
application called MPI_Abort(comm=0x84000003, 0) - process 195
application called MPI_Abort(comm=0x84000003, 0) - process 250
application called MPI_Abort(comm=0x84000003, 0) - process 247
application called MPI_Abort(comm=0x84000003, 0) - process 245
application called MPI_Abort(comm=0x84000003, 0) - process 203
application called MPI_Abort(comm=0x84000003, 0) - process 100
application called MPI_Abort(comm=0x84000003, 0) - process 284
application called MPI_Abort(comm=0x84000003, 0) - process 99
application called MPI_Abort(comm=0x84000003, 0) - process 57
application called MPI_Abort(comm=0x84000003, 0) - process 161
application called MPI_Abort(comm=0x84000003, 0) - process 107
application called MPI_Abort(comm=0x84000003, 0) - process 246
application called MPI_Abort(comm=0x84000003, 0) - process 198
application called MPI_Abort(comm=0x84000003, 0) - process 69
application called MPI_Abort(comm=0x84000003, 0) - process 35
application called MPI_Abort(comm=0x84000003, 0) - process 139
application called MPI_Abort(comm=0x84000003, 0) - process 243
application called MPI_Abort(comm=0x84000003, 0) - process 67
application called MPI_Abort(comm=0x84000003, 0) - process 158
application called MPI_Abort(comm=0x84000003, 0) - process 56
application called MPI_Abort(comm=0x84000003, 0) - process 200
application called MPI_Abort(comm=0x84000003, 0) - process 199
application called MPI_Abort(comm=0x84000003, 0) - process 98
application called MPI_Abort(comm=0x84000003, 0) - process 233
application called MPI_Abort(comm=0x84000003, 0) - process 287
application called MPI_Abort(comm=0x84000003, 0) - process 13
application called MPI_Abort(comm=0x84000003, 0) - process 124
application called MPI_Abort(comm=0x84000003, 0) - process 34
application called MPI_Abort(comm=0x84000003, 0) - process 148
application called MPI_Abort(comm=0x84000003, 0) - process 114
application called MPI_Abort(comm=0x84000003, 0) - process 283
application called MPI_Abort(comm=0x84000003, 0) - process 103
application called MPI_Abort(comm=0x84000003, 0) - process 254
application called MPI_Abort(comm=0x84000005, 0) - process 84
application called MPI_Abort(comm=0x84000003, 0) - process 47
application called MPI_Abort(comm=0x84000003, 0) - process 266
application called MPI_Abort(comm=0x84000003, 0) - process 145
application called MPI_Abort(comm=0x84000003, 0) - process 142
application called MPI_Abort(comm=0x84000003, 0) - process 76
application called MPI_Abort(comm=0x84000003, 0) - process 230
application called MPI_Abort(comm=0x84000005, 0) - process 120
application called MPI_Abort(comm=0x84000003, 0) - process 68
application called MPI_Abort(comm=0x84000003, 0) - process 217
application called MPI_Abort(comm=0x84000003, 0) - process 58
application called MPI_Abort(comm=0x84000003, 0) - process 208
application called MPI_Abort(comm=0x84000003, 0) - process 269
application called MPI_Abort(comm=0x84000003, 0) - process 141
application called MPI_Abort(comm=0x84000003, 0) - process 77
application called MPI_Abort(comm=0x84000003, 0) - process 265
application called MPI_Abort(comm=0x84000003, 0) - process 220
application called MPI_Abort(comm=0x84000003, 0) - process 213
application called MPI_Abort(comm=0x84000003, 0) - process 126
application called MPI_Abort(comm=0x84000003, 0) - process 94
application called MPI_Abort(comm=0x84000003, 0) - process 149
application called MPI_Abort(comm=0x84000003, 0) - process 28
application called MPI_Abort(comm=0x84000003, 0) - process 171
application called MPI_Abort(comm=0x84000003, 0) - process 131
application called MPI_Abort(comm=0x84000003, 0) - process 83
application called MPI_Abort(comm=0x84000003, 0) - process 278
application called MPI_Abort(comm=0x84000003, 0) - process 260
application called MPI_Abort(comm=0x84000003, 0) - process 272
application called MPI_Abort(comm=0x84000003, 0) - process 214
application called MPI_Abort(comm=0x84000003, 0) - process 253
application called MPI_Abort(comm=0x84000003, 0) - process 210
application called MPI_Abort(comm=0x84000003, 0) - process 111
application called MPI_Abort(comm=0x84000003, 0) - process 113
application called MPI_Abort(comm=0x84000003, 0) - process 173
application called MPI_Abort(comm=0x84000003, 0) - process 53
application called MPI_Abort(comm=0x84000003, 0) - process 181
application called MPI_Abort(comm=0x84000003, 0) - process 165
application called MPI_Abort(comm=0x84000003, 0) - process 155
application called MPI_Abort(comm=0x84000003, 0) - process 16
application called MPI_Abort(comm=0x84000003, 0) - process 14
application called MPI_Abort(comm=0x84000003, 0) - process 15
application called MPI_Abort(comm=0x84000003, 0) - process 93
application called MPI_Abort(comm=0x84000003, 0) - process 61
application called MPI_Abort(comm=0x84000003, 0) - process 90
application called MPI_Abort(comm=0x84000003, 0) - process 22
application called MPI_Abort(comm=0x84000003, 0) - process 130
application called MPI_Abort(comm=0x84000003, 0) - process 176
application called MPI_Abort(comm=0x84000003, 0) - process 280
application called MPI_Abort(comm=0x84000003, 0) - process 258
application called MPI_Abort(comm=0x84000003, 0) - process 26
application called MPI_Abort(comm=0x84000003, 0) - process 63
application called MPI_Abort(comm=0x84000003, 0) - process 23
application called MPI_Abort(comm=0x84000003, 0) - process 184
application called MPI_Abort(comm=0x84000003, 0) - process 179
application called MPI_Abort(comm=0x84000003, 0) - process 19
application called MPI_Abort(comm=0x84000005, 0) - process 168
application called MPI_Abort(comm=0x84000005, 0) - process 216
application called MPI_Abort(comm=0x84000003, 0) - process 206
application called MPI_Abort(comm=0x84000003, 0) - process 226
application called MPI_Abort(comm=0x84000003, 0) - process 135
application called MPI_Abort(comm=0x84000003, 0) - process 279
application called MPI_Abort(comm=0x84000003, 0) - process 209
application called MPI_Abort(comm=0x84000003, 0) - process 257
application called MPI_Abort(comm=0x84000003, 0) - process 2
application called MPI_Abort(comm=0x84000003, 0) - process 25
application called MPI_Abort(comm=0x84000003, 0) - process 42
application called MPI_Abort(comm=0x84000003, 0) - process 43
application called MPI_Abort(comm=0x84000003, 0) - process 79
application called MPI_Abort(comm=0x84000003, 0) - process 45
application called MPI_Abort(comm=0x84000003, 0) - process 152
application called MPI_Abort(comm=0x84000003, 0) - process 29
application called MPI_Abort(comm=0x84000003, 0) - process 174
application called MPI_Abort(comm=0x84000003, 0) - process 271
application called MPI_Abort(comm=0x84000003, 0) - process 51
application called MPI_Abort(comm=0x84000003, 0) - process 44
application called MPI_Abort(comm=0x84000003, 0) - process 207
application called MPI_Abort(comm=0x84000003, 0) - process 164
application called MPI_Abort(comm=0x84000003, 0) - process 273
application called MPI_Abort(comm=0x84000003, 0) - process 46
application called MPI_Abort(comm=0x84000003, 0) - process 263
application called MPI_Abort(comm=0x84000005, 0) - process 276
application called MPI_Abort(comm=0x84000003, 0) - process 127
application called MPI_Abort(comm=0x84000003, 0) - process 224
application called MPI_Abort(comm=0x84000003, 0) - process 227
application called MPI_Abort(comm=0x84000003, 0) - process 261
application called MPI_Abort(comm=0x84000003, 0) - process 151
application called MPI_Abort(comm=0x84000003, 0) - process 128
application called MPI_Abort(comm=0x84000003, 0) - process 191
application called MPI_Abort(comm=0x84000003, 0) - process 78
application called MPI_Abort(comm=0x84000003, 0) - process 235
application called MPI_Abort(comm=0x84000003, 0) - process 3
application called MPI_Abort(comm=0x84000005, 0) - process 228
application called MPI_Abort(comm=0x84000003, 0) - process 64
application called MPI_Abort(comm=0x84000003, 0) - process 259
application called MPI_Abort(comm=0x84000003, 0) - process 136
application called MPI_Abort(comm=0x84000003, 0) - process 92
application called MPI_Abort(comm=0x84000003, 0) - process 223
application called MPI_Abort(comm=0x84000003, 0) - process 274
application called MPI_Abort(comm=0x84000005, 0) - process 72
application called MPI_Abort(comm=0x84000005, 0) - process 108
application called MPI_Abort(comm=0x84000003, 0) - process 234
application called MPI_Abort(comm=0x84000005, 0) - process 132
application called MPI_Abort(comm=0x84000003, 0) - process 95
application called MPI_Abort(comm=0x84000003, 0) - process 109
application called MPI_Abort(comm=0x84000003, 0) - process 239
application called MPI_Abort(comm=0x84000003, 0) - process 134
application called MPI_Abort(comm=0x84000003, 0) - process 275
application called MPI_Abort(comm=0x84000003, 0) - process 163
application called MPI_Abort(comm=0x84000003, 0) - process 65
application called MPI_Abort(comm=0x84000003, 0) - process 162
application called MPI_Abort(comm=0x84000003, 0) - process 187
application called MPI_Abort(comm=0x84000003, 0) - process 50
application called MPI_Abort(comm=0x84000005, 0) - process 180
application called MPI_Abort(comm=0x84000003, 0) - process 150
application called MPI_Abort(comm=0x84000003, 0) - process 222
application called MPI_Abort(comm=0x84000003, 0) - process 62
application called MPI_Abort(comm=0x84000003, 0) - process 153
application called MPI_Abort(comm=0x84000003, 0) - process 178
application called MPI_Abort(comm=0x84000003, 0) - process 237
application called MPI_Abort(comm=0x84000003, 0) - process 9
application called MPI_Abort(comm=0x84000003, 0) - process 52
application called MPI_Abort(comm=0x84000003, 0) - process 49
application called MPI_Abort(comm=0x84000003, 0) - process 186
application called MPI_Abort(comm=0x84000005, 0) - process 24
application called MPI_Abort(comm=0x84000003, 0) - process 238
application called MPI_Abort(comm=0x84000003, 0) - process 106
application called MPI_Abort(comm=0x84000005, 0) - process 48
application called MPI_Abort(comm=0x84000005, 0) - process 204
application called MPI_Abort(comm=0x84000003, 0) - process 7
application called MPI_Abort(comm=0x84000003, 0) - process 188
application called MPI_Abort(comm=0x84000003, 0) - process 17
application called MPI_Abort(comm=0x84000003, 0) - process 189
application called MPI_Abort(comm=0x84000003, 0) - process 177
application called MPI_Abort(comm=0x84000003, 0) - process 10
application called MPI_Abort(comm=0x84000003, 0) - process 11
application called MPI_Abort(comm=0x84000003, 0) - process 104
application called MPI_Abort(comm=0x84000003, 0) - process 6
application called MPI_Abort(comm=0x84000003, 0) - process 115
application called MPI_Abort(comm=0x84000003, 0) - process 21
application called MPI_Abort(comm=0x84000003, 0) - process 285
application called MPI_Abort(comm=0x84000003, 0) - process 66
application called MPI_Abort(comm=0x84000003, 0) - process 282
application called MPI_Abort(comm=0x84000003, 0) - process 167
application called MPI_Abort(comm=0x84000003, 0) - process 71
application called MPI_Abort(comm=0x84000003, 0) - process 86
application called MPI_Abort(comm=0x84000005, 0) - process 60
application called MPI_Abort(comm=0x84000003, 0) - process 147
application called MPI_Abort(comm=0x84000005, 0) - process 252
application called MPI_Abort(comm=0x84000003, 0) - process 70
application called MPI_Abort(comm=0x84000003, 0) - process 231
application called MPI_Abort(comm=0x84000003, 0) - process 221
application called MPI_Abort(comm=0x84000003, 0) - process 74
application called MPI_Abort(comm=0x84000003, 0) - process 20
application called MPI_Abort(comm=0x84000003, 0) - process 166
application called MPI_Abort(comm=0x84000003, 0) - process 18
application called MPI_Abort(comm=0x84000003, 0) - process 102
application called MPI_Abort(comm=0x84000003, 0) - process 218
application called MPI_Abort(comm=0x84000003, 0) - process 286
application called MPI_Abort(comm=0x84000003, 0) - process 277
application called MPI_Abort(comm=0x84000003, 0) - process 101
application called MPI_Abort(comm=0x84000003, 0) - process 281
application called MPI_Abort(comm=0x84000005, 0) - process 12
application called MPI_Abort(comm=0x84000003, 0) - process 185
application called MPI_Abort(comm=0x84000003, 0) - process 129
application called MPI_Abort(comm=0x84000003, 0) - process 236
application called MPI_Abort(comm=0x84000003, 0) - process 194
application called MPI_Abort(comm=0x84000003, 0) - process 183
application called MPI_Abort(comm=0x84000003, 0) - process 154
application called MPI_Abort(comm=0x84000003, 0) - process 54
application called MPI_Abort(comm=0x84000003, 0) - process 82
application called MPI_Abort(comm=0x84000003, 0) - process 205
application called MPI_Abort(comm=0x84000003, 0) - process 182
application called MPI_Abort(comm=0x84000003, 0) - process 91
application called MPI_Abort(comm=0x84000003, 0) - process 225
application called MPI_Abort(comm=0x84000003, 0) - process 212
application called MPI_Abort(comm=0x84000003, 0) - process 8
application called MPI_Abort(comm=0x84000003, 0) - process 229
application called MPI_Abort(comm=0x84000003, 0) - process 190
application called MPI_Abort(comm=0x84000003, 0) - process 201
application called MPI_Abort(comm=0x84000003, 0) - process 112
application called MPI_Abort(comm=0x84000003, 0) - process 55
application called MPI_Abort(comm=0x84000003, 0) - process 59
application called MPI_Abort(comm=0x84000003, 0) - process 170
application called MPI_Abort(comm=0x84000005, 0) - process 240
application called MPI_Abort(comm=0x84000003, 0) - process 175
application called MPI_Abort(comm=0x84000003, 0) - process 37
application called MPI_Abort(comm=0x84000003, 0) - process 138
application called MPI_Abort(comm=0x84000003, 0) - process 172
application called MPI_Abort(comm=0x84000003, 0) - process 133
application called MPI_Abort(comm=0x84000003, 0) - process 89
application called MPI_Abort(comm=0x84000003, 0) - process 262
application called MPI_Abort(comm=0x84000003, 0) - process 244
application called MPI_Abort(comm=0x84000003, 0) - process 39
application called MPI_Abort(comm=0x84000003, 0) - process 85
application called MPI_Abort(comm=0x84000003, 0) - process 75
application called MPI_Abort(comm=0x84000003, 0) - process 219
application called MPI_Abort(comm=0x84000003, 0) - process 211
application called MPI_Abort(comm=0x84000003, 0) - process 267
application called MPI_Abort(comm=0x84000003, 0) - process 27
application called MPI_Abort(comm=0x84000003, 0) - process 256
application called MPI_Abort(comm=0x84000003, 0) - process 146
application called MPI_Abort(comm=0x84000005, 0) - process 156
application called MPI_Abort(comm=0x84000003, 0) - process 122
application called MPI_Abort(comm=0x84000003, 0) - process 73
application called MPI_Abort(comm=0x84000003, 0) - process 117
application called MPI_Abort(comm=0x84000003, 0) - process 123
application called MPI_Abort(comm=0x84000003, 0) - process 232
application called MPI_Abort(comm=0x84000003, 0) - process 118
application called MPI_Abort(comm=0x84000003, 0) - process 137
application called MPI_Abort(comm=0x84000003, 0) - process 110
application called MPI_Abort(comm=0x84000003, 0) - process 1
application called MPI_Abort(comm=0x84000003, 0) - process 32
application called MPI_Abort(comm=0x84000003, 0) - process 41
application called MPI_Abort(comm=0x84000003, 0) - process 5
application called MPI_Abort(comm=0x84000003, 0) - process 248
application called MPI_Abort(comm=0x84000003, 0) - process 242
application called MPI_Abort(comm=0x84000003, 0) - process 196
application called MPI_Abort(comm=0x84000003, 0) - process 4
application called MPI_Abort(comm=0x84000003, 0) - process 270
application called MPI_Abort(comm=0x84000003, 0) - process 140
application called MPI_Abort(comm=0x84000003, 0) - process 119
application called MPI_Abort(comm=0x84000003, 0) - process 241
application called MPI_Abort(comm=0x84000003, 0) - process 197
application called MPI_Abort(comm=0x84000003, 0) - process 193
application called MPI_Abort(comm=0x84000005, 0) - process 264
application called MPI_Abort(comm=0x84000003, 0) - process 268
application called MPI_Abort(comm=0x84000005, 0) - process 36
application called MPI_Abort(comm=0x84000003, 0) - process 157
application called MPI_Abort(comm=0x84000003, 0) - process 249
application called MPI_Abort(comm=0x84000005, 0) - process 192
application called MPI_Abort(comm=0x84000003, 0) - process 97
application called MPI_Abort(comm=0x84000003, 0) - process 169
application called MPI_Abort(comm=0x84000003, 0) - process 255
application called MPI_Abort(comm=0x84000003, 0) - process 81
application called MPI_Abort(comm=0x84000005, 0) - process 96
application called MPI_Abort(comm=0x84000003, 0) - process 121
application called MPI_Abort(comm=0x84000003, 0) - process 215
application called MPI_Abort(comm=0x84000005, 0) - process 144
application called MPI_Abort(comm=0x84000003, 0) - process 31
application called MPI_Abort(comm=0x84000005, 0) - process 0
application called MPI_Abort(comm=0x84000003, 0) - process 159
application called MPI_Abort(comm=0x84000003, 0) - process 30
application called MPI_Abort(comm=0x84000003, 0) - process 88
cp: cannot stat `./U6O2-211-opt.out': No such file or directory
----------------------------------------
Begin Torque Epilogue (Sun Mar 10 10:58:18 2013)
Job ID:           384870.taubm1.campuscluster.illinois.edu
Username:         davis68
Group:            npre_rizwan
Job Name:         U6O2-211-opt
Session:          25764
Limits:           ncpus=1,neednodes=24:ppn=12,nodes=24:ppn=12,walltime=24:00:00
Resources:        cput=169:25:43,mem=86252620kb,vmem=597699060kb,walltime=00:36:31
Job Queue:        cse
Account:          NPRE
Nodes:            taub280 taub284 taub297 taub308 taub310 taub315 taub316 taub317 taub318 taub339 taub340 taub348 taub349 taub350 taub351 taub352 taub353 taub354 taub355 taub356 taub357 taub358 taub359 taub503
End Torque Epilogue
----------------------------------------
