----------------------------------------
Begin Torque Prologue (Sun Mar 10 17:12:52 2013)
Job ID:           385025.taubm1.campuscluster.illinois.edu
Username:         davis68
Group:            npre_rizwan
Job Name:         U6O2-100-opt
Limits:           ncpus=1,neednodes=24:ppn=12,nodes=24:ppn=12,walltime=04:00:00
Job Queue:        cse
Account:          NPRE
Nodes:            taub286 taub308 taub315 taub316 taub317 taub318 taub327 taub339 taub340 taub348 taub357 taub359 taub367 taub449 taub450 taub457 taub458 taub465 taub468 taub498 taub502 taub503 taub510 taub511
End Torque Prologue
----------------------------------------
 argument  1 = ./U6O2-100-opt.nw



============================== echo of input deck ==============================
title "Gamma-uranium (100) adsorption"
echo

permanent_dir ./perm
scratch_dir   ./scratch

restart U6O2-100-crossctr

memory 2500 mb

nwpw
  # Real-space discretization
  simulation_cell
    ngrid 64 64 512
  end

  # Spin multiplicity---quenched to 1 in the solid state
  mult 3

  # Band, k-point sampling, and parallelism
  monkhorst-pack 4 4 1
  np_dimensions 8 12 8
  mapping 2

  # Periodicity considerations
  ewald_rcut 3.0
  ewald_ncut 8

  # Simulation parameters
  #restricted    # DFT||ODFT||RESTRICTED||UNRESTRICTED
  xc pbe96
  cutoff 90.0
  loop 10 300
  tolerances 1.0e-7 1.0e-7
end
set nwpw:minimizer      2
set nwpw:lcao_skip      .true.
set nwpw:kbpp_ray       .true.
set nwpw:kbpp_filter    .true.

## Optimization ##
driver
  #clear                # Deletes all restart data
  loose               # Specify loose, default, or tight convergence
  xyz U6O2     # Output XYZ file of geometry at each stage
  maxiter 80
end
set driver:linopt 0
set nwpw:cif_filename U6O2.opt
set nwpw:psi_nolattice .true.

#       (100) gamma-uranium surface with surface displacements:	29.7%	-15.3%	and X displacement of	1.75	Å
geometry	center	noautosym	noautoz	print
	system	crystal
	lat_a	3.44
	lat_b	3.44
	lat_c	22.32
	alpha	90.0d0
	beta	90.0d0
	gamma	90.0d0
	end
	U1	0.50000	0.50000	0.72009
	U2	0.00000	0.00000	0.66591
	U3	0.50000	0.50000	0.57706
	U4	0.00000	0.00000	0.50000
	U5	0.50000	0.50000	0.41115
	U6	0.00000	0.00000	0.35697
	O1	0.38096	0.14458	0.82285
	O2	0.11488	0.35664	0.77363
end
constraints surf
  fix atom 1:6
end
set constraints surf
task band optimize ignore

# A.M.D.G.
================================================================================


                                         
                                         


             Northwest Computational Chemistry Package (NWChem) 6.1.1
             --------------------------------------------------------


                    Environmental Molecular Sciences Laboratory
                       Pacific Northwest National Laboratory
                                Richland, WA 99352

                              Copyright (c) 1994-2012
                       Pacific Northwest National Laboratory
                            Battelle Memorial Institute

             NWChem is an open-source computational chemistry package
                        distributed under the terms of the
                      Educational Community License (ECL) 2.0
             A copy of the license is included with this distribution
                              in the LICENSE.TXT file

                                  ACKNOWLEDGMENT
                                  --------------

            This software and its documentation were developed at the
            EMSL at Pacific Northwest National Laboratory, a multiprogram
            national laboratory, operated for the U.S. Department of Energy
            by Battelle under Contract Number DE-AC05-76RL01830. Support
            for this work was provided by the Department of Energy Office
            of Biological and Environmental Research, Office of Basic
            Energy Sciences, and the Office of Advanced Scientific Computing.


           Job information
           ---------------

    hostname        = taub511
    program         = /home/davis68/bin/nwchem-dev
    date            = Sun Mar 10 17:13:44 2013

    compiled        = Wed_Oct_03_09:41:00_2012
    source          = /home/davis68/nwchem/nwchem-src-2012-Aug-27/
    nwchem branch   = Development
    nwchem revision = 22805
    ga revision     = 10079
    input           = ./U6O2-100-opt.nw
    prefix          = U6O2-100-crossctr.
    data base       = ./perm/U6O2-100-crossctr.db
    status          = restart
    nproc           =      288
    time left       =     -1s



           Memory information
           ------------------

    heap     =   81920001 doubles =    625.0 Mbytes
    stack    =   81920001 doubles =    625.0 Mbytes
    global   =  163840000 doubles =   1250.0 Mbytes (distinct from heap & stack)
    total    =  327680002 doubles =   2500.0 Mbytes
    verify   = yes
    hardfail = no 


           Directory information
           ---------------------

  0 permanent = ./perm
  0 scratch   = ./scratch


           Previous task information
           -------------------------

    Theory    = band                            
    Operation = optimize                      
    Status    = fail                          
    Qmmm      = F
    Ignore    = T


           Geometries in the database
           --------------------------

       Name                              Natoms  Last Modified
       --------------------------------  ------  ------------------------
    1  geometry                               8  Sun Mar 10 07:56:02 2013  
    2  driverinitial                          8  Sun Mar 10 07:56:02 2013  
    3  pspwgeometry                           8  Sun Mar 10 07:59:33 2013  

  The geometry named "geometry" is the default for restart



           Basis sets in the database
           --------------------------

  There are no basis sets in the database



                                NWChem Input Module
                                -------------------


                          Gamma-uranium (100) adsorption
                          ------------------------------

  !!!!!!!!!  geom_3d NEEDS TESTING !!!!!!!!!! 


                             Geometry "geometry" -> ""
                             -------------------------

 Output coordinates in angstroms (scale by  1.889725989 to convert to a.u.)

  No.       Tag          Charge          X              Y              Z
 ---- ---------------- ---------- -------------- -------------- --------------
    1 U1                  92.0000     1.72000000     1.72000000    16.07240880
    2 U2                  92.0000     0.00000000     0.00000000    14.86311120
    3 U3                  92.0000     1.72000000     1.72000000    12.87997920
    4 U4                  92.0000     0.00000000     0.00000000    11.16000000
    5 U5                  92.0000     1.72000000     1.72000000     9.17686800
    6 U6                  92.0000     0.00000000     0.00000000     7.96757040
    7 O1                   8.0000     1.31050240     0.49735520    18.36601200
    8 O2                   8.0000     0.39518720     1.22684160    17.26742160

      Lattice Parameters 
      ------------------ 

      lattice vectors in angstroms (scale by  1.889725989 to convert to a.u.)

      a1=<   3.440   0.000   0.000 >
      a2=<   0.000   3.440   0.000 >
      a3=<   0.000   0.000  22.320 >
      a=       3.440 b=      3.440 c=      22.320
      alpha=  90.000 beta=  90.000 gamma=  90.000
      omega=   264.1

      reciprocal lattice vectors in a.u.

      b1=<   0.967   0.000  -0.000 >
      b2=<  -0.000   0.967  -0.000 >
      b3=<   0.000   0.000   0.149 >

      Atomic Mass 
      ----------- 

      U1               238.050800
      U2               238.050800
      U3               238.050800
      U4               238.050800
      U5               238.050800
      U6               238.050800
      O1                15.994910
      O2                15.994910


 ==============================================================================
                                internuclear distances
 ------------------------------------------------------------------------------
       center one      |      center two      | atomic units |  angstroms
 ------------------------------------------------------------------------------
    2 U2               |   1 U1               |     5.13338  |     2.71647
    3 U3               |   1 U1               |     6.03282  |     3.19243
    3 U3               |   2 U2               |     5.93073  |     3.13841
    4 U4               |   2 U2               |     6.99787  |     3.70311
    4 U4               |   3 U3               |     5.62971  |     2.97912
    5 U5               |   3 U3               |     6.99787  |     3.70311
    5 U5               |   4 U4               |     5.93073  |     3.13841
    6 U6               |   4 U4               |     6.03282  |     3.19243
    6 U6               |   5 U5               |     5.13338  |     2.71647
    7 O1               |   1 U1               |     4.97223  |     2.63119
    8 O2               |   1 U1               |     3.49798  |     1.85105
    8 O2               |   2 U2               |     5.15519  |     2.72801
 ------------------------------------------------------------------------------
                         number of included internuclear distances:         12
 ==============================================================================



 ==============================================================================
                                 internuclear angles
 ------------------------------------------------------------------------------
        center 1       |       center 2       |       center 3       |  degrees
 ------------------------------------------------------------------------------
    1 U1               |   2 U2               |   3 U3               |    65.62
    2 U2               |   1 U1               |   7 O1               |    89.73
    2 U2               |   1 U1               |   8 O2               |    70.46
    3 U3               |   1 U1               |   7 O1               |   150.66
    3 U3               |   1 U1               |   8 O2               |   130.21
    7 O1               |   1 U1               |   8 O2               |    37.07
    1 U1               |   2 U2               |   3 U3               |    65.62
    1 U1               |   2 U2               |   4 U4               |   116.43
    2 U2               |   1 U1               |   8 O2               |    70.46
    2 U2               |   3 U3               |   4 U4               |    74.45
    3 U3               |   2 U2               |   8 O2               |   103.36
    4 U4               |   2 U2               |   8 O2               |   151.80
    3 U3               |   2 U2               |   1 U1               |    65.62
    1 U1               |   3 U3               |   4 U4               |   125.26
    1 U1               |   3 U3               |   5 U5               |   180.00
    2 U2               |   3 U3               |   4 U4               |    74.45
    2 U2               |   3 U3               |   5 U5               |   129.19
    3 U3               |   4 U4               |   5 U5               |    74.45
    4 U4               |   3 U3               |   2 U2               |    74.45
    2 U2               |   4 U4               |   5 U5               |   129.19
    2 U2               |   4 U4               |   6 U6               |   180.00
    3 U3               |   4 U4               |   5 U5               |    74.45
    3 U3               |   4 U4               |   6 U6               |   125.26
    4 U4               |   5 U5               |   6 U6               |    65.62
    5 U5               |   4 U4               |   3 U3               |    74.45
    3 U3               |   5 U5               |   6 U6               |   116.43
    4 U4               |   5 U5               |   6 U6               |    65.62
    6 U6               |   5 U5               |   4 U4               |    65.62
    8 O2               |   1 U1               |   2 U2               |    70.46
 ------------------------------------------------------------------------------
                            number of included internuclear angles:         29
 ==============================================================================



 fixed atoms                  :   1     2     3     4
                                  5     6


 no springs found
                         NWChem Constraints Module
                         -------------------------
 General Information
 -------------------
 fixed atoms                  :   1     2     3     4
                                  5     6


 no springs found
 no springs found


                           NWChem Geometry Optimization
                           ----------------------------




                          Gamma-uranium (100) adsorption


 maximum gradient threshold         (gmax) =   0.004500
 rms gradient threshold             (grms) =   0.003000
 maximum cartesian step threshold   (xmax) =   0.018000
 rms cartesian step threshold       (xrms) =   0.012000
 fixed trust radius                (trust) =   0.300000
 maximum step size to saddle      (sadstp) =   0.100000
 energy precision                  (eprec) =   1.0D-07
 maximum number of steps          (nptopt) =   80
 initial hessian option           (inhess) =    0
 line search option               (linopt) =    0
 hessian update option            (modupd) =    1
 saddle point option              (modsad) =    0
 initial eigen-mode to follow     (moddir) =    0
 initial variable to follow       (vardir) =    0
 follow first negative mode     (firstneg) =    T
 apply conjugacy                    (opcg) =    F
 source of zmatrix                         =           


          -------------------
          Energy Minimization
          -------------------


 Using old Hessian from previous optimization

          --------
          Step   0
          --------


                         Geometry "geometry" -> "geometry"
                         ---------------------------------

 Output coordinates in angstroms (scale by  1.889725989 to convert to a.u.)

  No.       Tag          Charge          X              Y              Z
 ---- ---------------- ---------- -------------- -------------- --------------
    1 U1                  92.0000     1.72000000     1.72000000    16.07240880
    2 U2                  92.0000     0.00000000     0.00000000    14.86311120
    3 U3                  92.0000     1.72000000     1.72000000    12.87997920
    4 U4                  92.0000     0.00000000     0.00000000    11.16000000
    5 U5                  92.0000     1.72000000     1.72000000     9.17686800
    6 U6                  92.0000     0.00000000     0.00000000     7.96757040
    7 O1                   8.0000     1.31050240     0.49735520    18.36601200
    8 O2                   8.0000     0.39518720     1.22684160    17.26742160

      Lattice Parameters 
      ------------------ 

      lattice vectors in angstroms (scale by  1.889725989 to convert to a.u.)

      a1=<   3.440   0.000   0.000 >
      a2=<   0.000   3.440   0.000 >
      a3=<   0.000   0.000  22.320 >
      a=       3.440 b=      3.440 c=      22.320
      alpha=  90.000 beta=  90.000 gamma=  90.000
      omega=   264.1

      reciprocal lattice vectors in a.u.

      b1=<   0.967   0.000  -0.000 >
      b2=<  -0.000   0.967  -0.000 >
      b3=<   0.000   0.000   0.149 >

      Atomic Mass 
      ----------- 

      U1               238.050800
      U2               238.050800
      U3               238.050800
      U4               238.050800
      U5               238.050800
      U6               238.050800
      O1                15.994910
      O2                15.994910


          **********************************************************
          *                                                        *
          *                   NWPW BAND Calculation                *
          *                                                        *
          *  [(bundled Grassman/Stiefel manifold implementation)]  *
          *                                                        *
          *         [ NorthWest Chemistry implementation ]         *
          *                                                        *
          *                version #1.10   01/31/03                *
          *                                                        *
          *  A pseudopotential plane-wave band structure program   *
          *  with Brillouin zone sampling for optimizing crystals, *
          *  slabs, and polymers.  Developed by Eric J. Bylaska    *
          *  , Edoardo Apra, and Patrick Nichols.                  *
          *                                                        *
          **********************************************************
     >>>  JOB STARTED       AT Sun Mar 10 17:13:45 2013  <<<
          ================ input data ========================
 Error reading psi - bad unitcell
  - Ignored if the following  parameter is set
  - set nwpw:psi_nolattice .true.
 Error reading psi - bad unitcell
  - Ignored if the following  parameter is set
  - set nwpw:psi_nolattice .true.
 Error reading psi - bad unitcell
  - Ignored if the following  parameter is set
  - set nwpw:psi_nolattice .true.

 input psi filename:./perm/U6O2-100-crossctr.movecs

 Fixed ion positions:    1    2    3    4    5    6


 number of processors used:             288
 processor grid           :  36 x   1 x   8
 parallel mapping         :     2d  hilbert

 options:
      boundary conditions  = periodic    (version3)
      electron spin        = unrestricted
      exchange-correlation = PBE96 (White and Bird) parameterization

 elements involved in the cluster:
      1: U     core charge:14.0  lmax=3
             comment    : Parameterized (J.Chem. Phys. vol 128, 124507 (2008)) Troullier-Martins psp
             pseudpotential type            :   0
             highest angular component      :   3
             local potential used           :   0
             number of non-local projections:  15
             cutoff =   1.421   1.602   2.400   1.250
      2: O     core charge: 6.0  lmax=2
             comment    : Parameterized (Chem.Phys.Lett., vol 322, page 447) Hamman psp
             pseudpotential type            :   0
             highest angular component      :   2
             local potential used           :   2
             number of non-local projections:   4
             cutoff =   0.700   0.700   0.700

 total charge:   0.000

 atomic composition:
     U   :  6     O   :  2

 number of electrons: spin up=   49.00  spin down=   47.00 (fourier space)
 number of orbitals:  spin up=      49  spin down=      47 (fourier space)

 supercell:
      lattice:    a1=<   6.501   0.000   0.000 >
                  a2=<   0.000   6.501   0.000 >
                  a3=<   0.000   0.000  42.179 >
      reciprocal: b1=<   0.967   0.000  -0.000 >
                  b2=<  -0.000   0.967  -0.000 >
                  b3=<   0.000   0.000   0.149 >

      lattice:    a=   6.501    b=   6.501     c=  42.179
              alpha=  90.000 beta=  90.000 gamma=  90.000
      volume :     1782.4
      ewald summation: cut radius=    3.00  and  8
                        madelung=-3.34887517

 brillouin zone:
      number of zone points:     8
      weight=   0.125  ks=<   0.375   0.375   0.000 >, k=<   0.362   0.362  -0.000>
      weight=   0.125  ks=<   0.125   0.375   0.000 >, k=<   0.121   0.362  -0.000>
      weight=   0.125  ks=<  -0.125   0.375   0.000 >, k=<  -0.121   0.362  -0.000>
      weight=   0.125  ks=<   0.375  -0.375   0.000 >, k=<   0.362  -0.362  -0.000>
      weight=   0.125  ks=<   0.375   0.125   0.000 >, k=<   0.362   0.121  -0.000>
      weight=   0.125  ks=<   0.125   0.125   0.000 >, k=<   0.121   0.121  -0.000>
      weight=   0.125  ks=<   0.125  -0.125   0.000 >, k=<   0.121  -0.121  -0.000>
      weight=   0.125  ks=<   0.375  -0.125   0.000 >, k=<   0.362  -0.121  -0.000>

 computational grids:
      density     cutoff=180.000  fft=  64x  64x 512(   205623 waves     5711 per task)
      wavefnc   1 cutoff= 90.000  fft=  64x  64x 512(    72794 waves     2022 per task)
      wavefnc   2 cutoff= 90.000  fft=  64x  64x 512(    72667 waves     2018 per task)
      wavefnc   3 cutoff= 90.000  fft=  64x  64x 512(    72667 waves     2018 per task)
      wavefnc   4 cutoff= 90.000  fft=  64x  64x 512(    72794 waves     2022 per task)
      wavefnc   5 cutoff= 90.000  fft=  64x  64x 512(    72667 waves     2018 per task)
      wavefnc   6 cutoff= 90.000  fft=  64x  64x 512(    72659 waves     2018 per task)
      wavefnc   7 cutoff= 90.000  fft=  64x  64x 512(    72659 waves     2018 per task)
      wavefnc   8 cutoff= 90.000  fft=  64x  64x 512(    72667 waves     2018 per task)

 technical parameters:
      time step=      5.80     ficticious mass=  400000.0
      tolerance=.100E-06 (energy)   0.100E-06 (density)
      maximum iterations =      3000 (   10 inner    300 outer )



= energy calculation =


          ======== bundled Grassmann lmbfgs iteration ========
     >>>  ITERATION STARTED AT Sun Mar 10 17:18:16 2013  <<<
    iter.           Energy         DeltaE       DeltaRho 
    ------------------------------------------------------
      10   -0.3358677879E+03   -0.89031E+00    0.84318E+01
     -  10 steepest descent iterations performed
      20   -0.3392910476E+03   -0.65601E-01    0.21304E+00
     -  10 steepest descent iterations performed
      30   -0.3396442490E+03   -0.12461E-01    0.12266E-01
     -  10 steepest descent iterations performed
      40   -0.3397253093E+03   -0.42844E-02    0.34616E-02
      50   -0.3397670919E+03   -0.17620E-02    0.23721E-02
      60   -0.3397827653E+03   -0.16998E-02    0.59737E-03
      70   -0.3397954407E+03   -0.97826E-03    0.35140E-03
      80   -0.3398019714E+03   -0.56388E-03    0.14109E-03
      90   -0.3398067594E+03   -0.48737E-03    0.13648E-03
     100   -0.3398099940E+03   -0.27021E-03    0.92314E-04
     110   -0.3398124187E+03   -0.24587E-03    0.10005E-03
     120   -0.3398143031E+03   -0.16295E-03    0.10228E-03
     130   -0.3398156716E+03   -0.13545E-03    0.97556E-04
     140   -0.3398168440E+03   -0.99191E-04    0.11234E-03
     150   -0.3398176895E+03   -0.81868E-04    0.92138E-04
     160   -0.3398184264E+03   -0.65874E-04    0.10534E-03
     170   -0.3398190060E+03   -0.53857E-04    0.94415E-04
     180   -0.3398195040E+03   -0.48519E-04    0.96632E-04
     190   -0.3398199322E+03   -0.38024E-04    0.96883E-04
     200   -0.3398203122E+03   -0.37122E-04    0.10061E-03
     210   -0.3398206447E+03   -0.30688E-04    0.94120E-04
     220   -0.3398209187E+03   -0.25188E-04    0.75641E-04
     230   -0.3398211633E+03   -0.22868E-04    0.69992E-04
     240   -0.3398213634E+03   -0.18487E-04    0.53231E-04
     250   -0.3398215360E+03   -0.16145E-04    0.45318E-04
     260   -0.3398216896E+03   -0.14681E-04    0.41446E-04
     270   -0.3398218262E+03   -0.13115E-04    0.38877E-04
     280   -0.3398219506E+03   -0.11578E-04    0.38803E-04
     290   -0.3398220646E+03   -0.11046E-04    0.39654E-04
     300   -0.3398221690E+03   -0.99710E-05    0.40234E-04
     310   -0.3398222637E+03   -0.89230E-05    0.39684E-04
     320   -0.3398223496E+03   -0.81316E-05    0.38647E-04
     330   -0.3398224282E+03   -0.77074E-05    0.37922E-04
     340   -0.3398225038E+03   -0.73761E-05    0.40695E-04
     350   -0.3398225763E+03   -0.72206E-05    0.42943E-04
     360   -0.3398226499E+03   -0.74111E-05    0.49874E-04
     -  10 steepest descent iterations performed
     370   -0.3398227495E+03   -0.76798E-05    0.21968E-05
     -  10 steepest descent iterations performed
     380   -0.3398228029E+03   -0.25145E-05    0.85115E-06
     390   -0.3398228896E+03   -0.99727E-05    0.16149E-04
     -  10 steepest descent iterations performed
     400   -0.3398229483E+03   -0.19547E-05    0.48421E-06
     410   -0.3398229711E+03   -0.24365E-05    0.18077E-05
     -  10 steepest descent iterations performed
     420   -0.3398230008E+03   -0.19472E-05    0.99171E-06
     430   -0.3398230394E+03   -0.43351E-05    0.94389E-05
     -  10 steepest descent iterations performed
     440   -0.3398230857E+03   -0.20733E-05    0.60356E-06
     450   -0.3398231041E+03   -0.18097E-05    0.16381E-05
     460   -0.3398232982E+03   -0.25550E-04    0.32385E-03
     -  10 steepest descent iterations performed
     470   -0.3398234846E+03   -0.53031E-05    0.77287E-06
     480   -0.3398235065E+03   -0.18842E-05    0.54175E-06
     490   -0.3398235375E+03   -0.29678E-05    0.54348E-05
     -  10 steepest descent iterations performed
     500   -0.3398235766E+03   -0.20052E-05    0.12087E-05
     510   -0.3398236088E+03   -0.37954E-05    0.63883E-05
     -  10 steepest descent iterations performed
     520   -0.3398236507E+03   -0.30076E-05    0.13359E-05
     530   -0.3398236773E+03   -0.23829E-05    0.37242E-05
     540   -0.3398238345E+03   -0.22818E-04    0.22169E-03
     -  10 steepest descent iterations performed
     550   -0.3398239897E+03   -0.46473E-05    0.66001E-06
     560   -0.3398240143E+03   -0.17846E-05    0.79791E-06
     570   -0.3398240382E+03   -0.22215E-05    0.39317E-05
     -  10 steepest descent iterations performed
     580   -0.3398240716E+03   -0.25592E-05    0.17961E-05
     -  10 steepest descent iterations performed
     590   -0.3398240954E+03   -0.20917E-05    0.21572E-05
     600   -0.3398241915E+03   -0.13266E-04    0.11105E-03
     -  10 steepest descent iterations performed
     610   -0.3398242878E+03   -0.23723E-05    0.48992E-06
     620   -0.3398243020E+03   -0.15729E-05    0.81135E-06
     630   -0.3398243382E+03   -0.20868E-05    0.14252E-04
     -  10 steepest descent iterations performed
     640   -0.3398243807E+03   -0.15896E-05    0.12580E-05
     650   -0.3398243979E+03   -0.21894E-05    0.24350E-05
     -  10 steepest descent iterations performed
     660   -0.3398244231E+03   -0.17470E-05    0.17096E-05
     670   -0.3398244509E+03   -0.22690E-05    0.85989E-05
     -  10 steepest descent iterations performed
     680   -0.3398244888E+03   -0.22252E-05    0.15152E-05
     690   -0.3398245020E+03   -0.16483E-05    0.16506E-05
     700   -0.3398246640E+03   -0.27066E-04    0.43361E-03
     -  10 steepest descent iterations performed
     710   -0.3398248029E+03   -0.22432E-05    0.37791E-06
     720   -0.3398248193E+03   -0.10229E-05    0.67594E-06
     730   -0.3398248330E+03   -0.15405E-05    0.22682E-05
     -  10 steepest descent iterations performed
     740   -0.3398248541E+03   -0.20757E-05    0.18685E-05
     -  10 steepest descent iterations performed
     750   -0.3398248692E+03   -0.14804E-05    0.15164E-05
     760   -0.3398249177E+03   -0.37640E-05    0.51598E-04
     -  10 steepest descent iterations performed
     770   -0.3398249671E+03   -0.21499E-05    0.69376E-06
     780   -0.3398249766E+03   -0.86646E-06    0.56552E-06
     790   -0.3398249940E+03   -0.26498E-05    0.65544E-05
     -  10 steepest descent iterations performed
     800   -0.3398250157E+03   -0.79467E-06    0.59392E-06
     810   -0.3398250315E+03   -0.21920E-05    0.44445E-05
     -  10 steepest descent iterations performed
     820   -0.3398250512E+03   -0.16198E-05    0.13172E-05
     830   -0.3398250622E+03   -0.11982E-05    0.21025E-05
     840   -0.3398251718E+03   -0.10826E-04    0.36849E-03
     -  10 steepest descent iterations performed
     850   -0.3398252683E+03   -0.10781E-05    0.41421E-06
     860   -0.3398252788E+03   -0.91857E-06    0.52117E-06
     870   -0.3398252878E+03   -0.77095E-06    0.15870E-05
     880   -0.3398253432E+03   -0.14579E-04    0.12382E-03
     -  10 steepest descent iterations performed
     890   -0.3398253975E+03   -0.67751E-06    0.32623E-06
     900   -0.3398254064E+03   -0.99463E-06    0.71295E-06
     -  10 steepest descent iterations performed
     910   -0.3398254162E+03   -0.11725E-05    0.12771E-05
     -  10 steepest descent iterations performed
     920   -0.3398254249E+03   -0.40043E-06    0.58973E-06
     930   -0.3398254572E+03   -0.62585E-05    0.45972E-04
     -  10 steepest descent iterations performed
     940   -0.3398254902E+03   -0.80903E-06    0.28473E-06
     950   -0.3398254956E+03   -0.73295E-06    0.59311E-06
     960   -0.3398255234E+03   -0.29060E-05    0.33186E-04
     -  10 steepest descent iterations performed
     970   -0.3398255505E+03   -0.11420E-05    0.35404E-06
     980   -0.3398255574E+03   -0.43093E-06    0.45688E-06
     990   -0.3398255687E+03   -0.14646E-05    0.48598E-05
     -  10 steepest descent iterations performed
    1000   -0.3398255822E+03   -0.80414E-06    0.45867E-06
    1010   -0.3398255895E+03   -0.98299E-06    0.13215E-05
     -  10 steepest descent iterations performed
    1020   -0.3398255995E+03   -0.72604E-06    0.87623E-06
    1030   -0.3398256087E+03   -0.91858E-06    0.31500E-05
     -  10 steepest descent iterations performed
    1040   -0.3398256217E+03   -0.11014E-05    0.64982E-06
     -  10 steepest descent iterations performed
    1050   -0.3398256300E+03   -0.10676E-05    0.14687E-05
    1060   -0.3398256582E+03   -0.43708E-05    0.41133E-04
     -  10 steepest descent iterations performed
    1070   -0.3398256890E+03   -0.74457E-06    0.26510E-06
    1080   -0.3398256929E+03   -0.45700E-06    0.27713E-06
    1090   -0.3398257090E+03   -0.98648E-06    0.11960E-04
     -  10 steepest descent iterations performed
    1100   -0.3398257258E+03   -0.48742E-06    0.34395E-06
    1110   -0.3398257315E+03   -0.68542E-06    0.77068E-06
     -  10 steepest descent iterations performed
    1120   -0.3398257394E+03   -0.61544E-06    0.90917E-06
    1130   -0.3398257489E+03   -0.11028E-05    0.41246E-05
     -  10 steepest descent iterations performed
    1140   -0.3398257617E+03   -0.82351E-06    0.43273E-06
    1150   -0.3398257658E+03   -0.42094E-06    0.44676E-06
    1160   -0.3398257985E+03   -0.36712E-05    0.64495E-04
     -  10 steepest descent iterations performed
    1170   -0.3398258300E+03   -0.78697E-06    0.19420E-06
    1180   -0.3398258347E+03   -0.45161E-06    0.22219E-06
    1190   -0.3398258402E+03   -0.64110E-06    0.12062E-05
     -  10 steepest descent iterations performed
    1200   -0.3398258479E+03   -0.48660E-06    0.47180E-06
    1210   -0.3398258539E+03   -0.78442E-06    0.16354E-05
     -  10 steepest descent iterations performed
    1220   -0.3398258622E+03   -0.57011E-06    0.41463E-06
    1230   -0.3398258666E+03   -0.47867E-06    0.73116E-06
    1240   -0.3398259413E+03   -0.13855E-04    0.39081E-03
     -  10 steepest descent iterations performed
    1250   -0.3398259996E+03   -0.84075E-06    0.17407E-06
    1260   -0.3398260046E+03   -0.19736E-06    0.93205E-07
    1270   -0.3398260075E+03   -0.36741E-06    0.37281E-06
     -  10 steepest descent iterations performed
    1280   -0.3398260118E+03   -0.53761E-06    0.37906E-06
     -  10 steepest descent iterations performed
    1290   -0.3398260150E+03   -0.21636E-06    0.17879E-06
    1300   -0.3398260293E+03   -0.91510E-06    0.18233E-04
     -  10 steepest descent iterations performed
    1310   -0.3398260427E+03   -0.37427E-06    0.96812E-07
    1320   -0.3398260450E+03   -0.15832E-06    0.11381E-06
    1330   -0.3398260487E+03   -0.44819E-06    0.10820E-05
     -  10 steepest descent iterations performed
    1340   -0.3398260532E+03   -0.21865E-06    0.12366E-06
    1350   -0.3398260560E+03   -0.41143E-06    0.49119E-06
     -  10 steepest descent iterations performed
    1360   -0.3398260595E+03   -0.26906E-06    0.17645E-06
    1370   -0.3398260624E+03   -0.22816E-06    0.58899E-06
    1380   -0.3398260862E+03   -0.23730E-05    0.64924E-04
     -  10 steepest descent iterations performed
    1390   -0.3398261061E+03   -0.32184E-06    0.61189E-07
    1400   -0.3398261085E+03   -0.17811E-06    0.54516E-07
    1410   -0.3398261098E+03   -0.97175E-07    0.98906E-07
  *** tolerance ok.    iteration terminated.
     >>>  ITERATION ENDED   AT Sun Mar 10 19:27:50 2013  <<<


          =============  summary of results  =================

 number of electrons: spin up=   49.00000  down=   47.00000 (real space)

 total     energy    :  -0.3398261098E+03 (   -0.42478E+02/ion)
 total orbital energy:  -0.1591238082E+02 (   -0.16575E+00/electron)
 hartree   energy    :   0.1117494271E+04 (    0.11641E+02/electron)
 exc-corr  energy    :  -0.4622427458E+02 (   -0.48150E+00/electron)
 ion-ion   energy    :   0.7796300856E+03 (    0.97454E+02/ion)

 K.S. kinetic energy :   0.1649280577E+03 (    0.17180E+01/electron)
 K.S. V_l  energy    :  -0.2869578735E+03 (   -0.29891E+01/electron)
 K.S. V_nl energy    :  -0.5089223170E+02 (   -0.53013E+00/electron)
 K.S. V_Hart energy  :   0.2234988543E+04 (    0.23281E+02/electron)
 K.S. V_xc energy    :  -0.6017473127E+02 (   -0.62682E+00/electron)
 K.S. V_so energy    :   0.0000000000E+00 (    0.00000E+00/electron)
 Virial Coefficient  :   0.1113796968E+02

 Brillouin zone point:      1
    weight=  0.125000
    k     =<   0.375   0.375   0.000> . <b1,b2,b3> 
          =<   0.362   0.362  -0.000>

 orbital energies:
     0.3494123E+00 (   9.508eV) occ=1.000
     0.3374100E+00 (   9.181eV) occ=1.000
     0.3360111E+00 (   9.143eV) occ=1.000     0.3546291E+00 (   9.650eV) occ=1.000
     0.3294328E+00 (   8.964eV) occ=1.000     0.3438063E+00 (   9.356eV) occ=1.000
     0.3282172E+00 (   8.931eV) occ=1.000     0.3415669E+00 (   9.295eV) occ=1.000
     0.3241114E+00 (   8.820eV) occ=1.000     0.3370817E+00 (   9.173eV) occ=1.000
     0.3214482E+00 (   8.747eV) occ=1.000     0.3305147E+00 (   8.994eV) occ=1.000
     0.3194039E+00 (   8.691eV) occ=1.000     0.3296820E+00 (   8.971eV) occ=1.000
     0.3144124E+00 (   8.556eV) occ=1.000     0.3199571E+00 (   8.707eV) occ=1.000
     0.3128818E+00 (   8.514eV) occ=1.000     0.3140228E+00 (   8.545eV) occ=1.000
     0.3074418E+00 (   8.366eV) occ=1.000     0.3124281E+00 (   8.502eV) occ=1.000
     0.3060881E+00 (   8.329eV) occ=1.000     0.3088728E+00 (   8.405eV) occ=1.000
     0.3015706E+00 (   8.206eV) occ=1.000     0.3067793E+00 (   8.348eV) occ=1.000
     0.2971023E+00 (   8.085eV) occ=1.000     0.3003978E+00 (   8.174eV) occ=1.000
     0.2938565E+00 (   7.996eV) occ=1.000     0.2985394E+00 (   8.124eV) occ=1.000
     0.2861870E+00 (   7.788eV) occ=1.000     0.2888696E+00 (   7.861eV) occ=1.000
     0.2798752E+00 (   7.616eV) occ=1.000     0.2825444E+00 (   7.688eV) occ=1.000
     0.2714776E+00 (   7.387eV) occ=1.000     0.2714380E+00 (   7.386eV) occ=1.000
     0.2595458E+00 (   7.063eV) occ=1.000     0.2589390E+00 (   7.046eV) occ=1.000
     0.2492820E+00 (   6.783eV) occ=1.000     0.2509541E+00 (   6.829eV) occ=1.000
     0.1496085E+00 (   4.071eV) occ=1.000     0.1533720E+00 (   4.173eV) occ=1.000
     0.1109473E+00 (   3.019eV) occ=1.000     0.1111555E+00 (   3.025eV) occ=1.000
     0.9832333E-01 (   2.676eV) occ=1.000     0.1008363E+00 (   2.744eV) occ=1.000
    -0.1773735E+00 (  -4.827eV) occ=1.000    -0.1728956E+00 (  -4.705eV) occ=1.000
    -0.2332639E+00 (  -6.347eV) occ=1.000    -0.2229018E+00 (  -6.066eV) occ=1.000
    -0.2457076E+00 (  -6.686eV) occ=1.000    -0.2234718E+00 (  -6.081eV) occ=1.000
    -0.2471794E+00 (  -6.726eV) occ=1.000    -0.2411581E+00 (  -6.562eV) occ=1.000
    -0.2644708E+00 (  -7.197eV) occ=1.000    -0.2633034E+00 (  -7.165eV) occ=1.000
    -0.2726648E+00 (  -7.420eV) occ=1.000    -0.2782033E+00 (  -7.570eV) occ=1.000
    -0.2875963E+00 (  -7.826eV) occ=1.000    -0.2829386E+00 (  -7.699eV) occ=1.000
    -0.3015756E+00 (  -8.206eV) occ=1.000    -0.2959217E+00 (  -8.053eV) occ=1.000
    -0.3073687E+00 (  -8.364eV) occ=1.000    -0.2998908E+00 (  -8.161eV) occ=1.000
    -0.3190979E+00 (  -8.683eV) occ=1.000    -0.3106702E+00 (  -8.454eV) occ=1.000
    -0.3314942E+00 (  -9.020eV) occ=1.000    -0.3309402E+00 (  -9.005eV) occ=1.000
    -0.3497274E+00 (  -9.517eV) occ=1.000    -0.3480965E+00 (  -9.472eV) occ=1.000
    -0.3817674E+00 ( -10.389eV) occ=1.000    -0.3727473E+00 ( -10.143eV) occ=1.000
    -0.3879994E+00 ( -10.558eV) occ=1.000    -0.3873124E+00 ( -10.539eV) occ=1.000
    -0.3952867E+00 ( -10.756eV) occ=1.000    -0.3969549E+00 ( -10.802eV) occ=1.000
    -0.4180061E+00 ( -11.375eV) occ=1.000    -0.4257958E+00 ( -11.587eV) occ=1.000
    -0.4463649E+00 ( -12.146eV) occ=1.000    -0.4265388E+00 ( -11.607eV) occ=1.000
    -0.4506340E+00 ( -12.262eV) occ=1.000    -0.4362717E+00 ( -11.872eV) occ=1.000
    -0.4557967E+00 ( -12.403eV) occ=1.000    -0.4543668E+00 ( -12.364eV) occ=1.000
    -0.5454897E+00 ( -14.844eV) occ=1.000    -0.5390783E+00 ( -14.669eV) occ=1.000
    -0.1175233E+01 ( -31.980eV) occ=1.000    -0.1171243E+01 ( -31.871eV) occ=1.000
    -0.1187084E+01 ( -32.302eV) occ=1.000    -0.1184427E+01 ( -32.230eV) occ=1.000
    -0.1218981E+01 ( -33.170eV) occ=1.000    -0.1204783E+01 ( -32.784eV) occ=1.000
    -0.1241970E+01 ( -33.796eV) occ=1.000    -0.1213805E+01 ( -33.030eV) occ=1.000
    -0.1253038E+01 ( -34.097eV) occ=1.000    -0.1245829E+01 ( -33.901eV) occ=1.000
    -0.1254018E+01 ( -34.124eV) occ=1.000    -0.1249437E+01 ( -33.999eV) occ=1.000

 Brillouin zone point:      2
    weight=  0.125000
    k     =<   0.125   0.375   0.000> . <b1,b2,b3> 
          =<   0.121   0.362  -0.000>

 orbital energies:
     0.3460018E+00 (   9.415eV) occ=1.000
     0.3402472E+00 (   9.259eV) occ=1.000
     0.3325190E+00 (   9.048eV) occ=1.000     0.3406707E+00 (   9.270eV) occ=1.000
     0.3243869E+00 (   8.827eV) occ=1.000     0.3308771E+00 (   9.004eV) occ=1.000
     0.3196005E+00 (   8.697eV) occ=1.000     0.3265880E+00 (   8.887eV) occ=1.000
     0.3181770E+00 (   8.658eV) occ=1.000     0.3216272E+00 (   8.752eV) occ=1.000
     0.3137826E+00 (   8.539eV) occ=1.000     0.3161226E+00 (   8.602eV) occ=1.000
     0.3078110E+00 (   8.376eV) occ=1.000     0.3138594E+00 (   8.541eV) occ=1.000
     0.3053001E+00 (   8.308eV) occ=1.000     0.3091241E+00 (   8.412eV) occ=1.000
     0.3013762E+00 (   8.201eV) occ=1.000     0.3037270E+00 (   8.265eV) occ=1.000
     0.2938314E+00 (   7.996eV) occ=1.000     0.3000577E+00 (   8.165eV) occ=1.000
     0.2907364E+00 (   7.911eV) occ=1.000     0.2972243E+00 (   8.088eV) occ=1.000
     0.2872180E+00 (   7.816eV) occ=1.000     0.2897261E+00 (   7.884eV) occ=1.000
     0.2851261E+00 (   7.759eV) occ=1.000     0.2873889E+00 (   7.820eV) occ=1.000
     0.2810810E+00 (   7.649eV) occ=1.000     0.2781507E+00 (   7.569eV) occ=1.000
     0.2676612E+00 (   7.283eV) occ=1.000     0.2722590E+00 (   7.409eV) occ=1.000
     0.2568062E+00 (   6.988eV) occ=1.000     0.2593639E+00 (   7.058eV) occ=1.000
     0.2531401E+00 (   6.888eV) occ=1.000     0.2556128E+00 (   6.956eV) occ=1.000
     0.2424297E+00 (   6.597eV) occ=1.000     0.2476419E+00 (   6.739eV) occ=1.000
     0.2343760E+00 (   6.378eV) occ=1.000     0.2392950E+00 (   6.512eV) occ=1.000
     0.1449891E+00 (   3.945eV) occ=1.000     0.1488145E+00 (   4.049eV) occ=1.000
     0.1110881E+00 (   3.023eV) occ=1.000     0.1109012E+00 (   3.018eV) occ=1.000
     0.7262585E-01 (   1.976eV) occ=1.000     0.7399393E-01 (   2.013eV) occ=1.000
    -0.1969292E+00 (  -5.359eV) occ=1.000    -0.1920367E+00 (  -5.226eV) occ=1.000
    -0.2328153E+00 (  -6.335eV) occ=1.000    -0.2260737E+00 (  -6.152eV) occ=1.000
    -0.2492648E+00 (  -6.783eV) occ=1.000    -0.2338738E+00 (  -6.364eV) occ=1.000
    -0.2537256E+00 (  -6.904eV) occ=1.000    -0.2448157E+00 (  -6.662eV) occ=1.000
    -0.2564491E+00 (  -6.978eV) occ=1.000    -0.2566321E+00 (  -6.983eV) occ=1.000
    -0.2702502E+00 (  -7.354eV) occ=1.000    -0.2644573E+00 (  -7.196eV) occ=1.000
    -0.2752197E+00 (  -7.489eV) occ=1.000    -0.2716087E+00 (  -7.391eV) occ=1.000
    -0.2856469E+00 (  -7.773eV) occ=1.000    -0.2797287E+00 (  -7.612eV) occ=1.000
    -0.2993150E+00 (  -8.145eV) occ=1.000    -0.2924662E+00 (  -7.958eV) occ=1.000
    -0.3087632E+00 (  -8.402eV) occ=1.000    -0.3037307E+00 (  -8.265eV) occ=1.000
    -0.3313446E+00 (  -9.016eV) occ=1.000    -0.3311282E+00 (  -9.011eV) occ=1.000
    -0.3400577E+00 (  -9.254eV) occ=1.000    -0.3381326E+00 (  -9.201eV) occ=1.000
    -0.3617447E+00 (  -9.844eV) occ=1.000    -0.3546984E+00 (  -9.652eV) occ=1.000
    -0.3715226E+00 ( -10.110eV) occ=1.000    -0.3668734E+00 (  -9.983eV) occ=1.000
    -0.3965724E+00 ( -10.791eV) occ=1.000    -0.3908371E+00 ( -10.635eV) occ=1.000
    -0.3992497E+00 ( -10.864eV) occ=1.000    -0.3988101E+00 ( -10.852eV) occ=1.000
    -0.4192370E+00 ( -11.408eV) occ=1.000    -0.4086674E+00 ( -11.120eV) occ=1.000
    -0.4297856E+00 ( -11.695eV) occ=1.000    -0.4196131E+00 ( -11.418eV) occ=1.000
    -0.4388518E+00 ( -11.942eV) occ=1.000    -0.4363316E+00 ( -11.873eV) occ=1.000
    -0.5295212E+00 ( -14.409eV) occ=1.000    -0.5235881E+00 ( -14.248eV) occ=1.000
    -0.1176795E+01 ( -32.022eV) occ=1.000    -0.1173277E+01 ( -31.927eV) occ=1.000
    -0.1188722E+01 ( -32.347eV) occ=1.000    -0.1183567E+01 ( -32.207eV) occ=1.000
    -0.1218557E+01 ( -33.159eV) occ=1.000    -0.1205794E+01 ( -32.812eV) occ=1.000
    -0.1244312E+01 ( -33.860eV) occ=1.000    -0.1219826E+01 ( -33.193eV) occ=1.000
    -0.1258202E+01 ( -34.238eV) occ=1.000    -0.1247222E+01 ( -33.939eV) occ=1.000
    -0.1258512E+01 ( -34.246eV) occ=1.000    -0.1255014E+01 ( -34.151eV) occ=1.000

 Brillouin zone point:      3
    weight=  0.125000
    k     =<  -0.125   0.375   0.000> . <b1,b2,b3> 
          =<  -0.121   0.362  -0.000>

 orbital energies:
     0.3452354E+00 (   9.394eV) occ=1.000
     0.3368879E+00 (   9.167eV) occ=1.000
     0.3313136E+00 (   9.016eV) occ=1.000     0.3389482E+00 (   9.223eV) occ=1.000
     0.3224793E+00 (   8.775eV) occ=1.000     0.3311928E+00 (   9.012eV) occ=1.000
     0.3201531E+00 (   8.712eV) occ=1.000     0.3264081E+00 (   8.882eV) occ=1.000
     0.3181875E+00 (   8.658eV) occ=1.000     0.3220596E+00 (   8.764eV) occ=1.000
     0.3135014E+00 (   8.531eV) occ=1.000     0.3168627E+00 (   8.622eV) occ=1.000
     0.3085917E+00 (   8.397eV) occ=1.000     0.3138177E+00 (   8.539eV) occ=1.000
     0.3062748E+00 (   8.334eV) occ=1.000     0.3099164E+00 (   8.433eV) occ=1.000
     0.3008556E+00 (   8.187eV) occ=1.000     0.3032849E+00 (   8.253eV) occ=1.000
     0.2947898E+00 (   8.022eV) occ=1.000     0.2996216E+00 (   8.153eV) occ=1.000
     0.2910854E+00 (   7.921eV) occ=1.000     0.2979021E+00 (   8.106eV) occ=1.000
     0.2857046E+00 (   7.774eV) occ=1.000     0.2902794E+00 (   7.899eV) occ=1.000
     0.2850957E+00 (   7.758eV) occ=1.000     0.2866004E+00 (   7.799eV) occ=1.000
     0.2775567E+00 (   7.553eV) occ=1.000     0.2768926E+00 (   7.535eV) occ=1.000
     0.2696060E+00 (   7.336eV) occ=1.000     0.2720700E+00 (   7.403eV) occ=1.000
     0.2594667E+00 (   7.061eV) occ=1.000     0.2628213E+00 (   7.152eV) occ=1.000
     0.2540478E+00 (   6.913eV) occ=1.000     0.2551354E+00 (   6.943eV) occ=1.000
     0.2416993E+00 (   6.577eV) occ=1.000     0.2450272E+00 (   6.668eV) occ=1.000
     0.2347627E+00 (   6.388eV) occ=1.000     0.2418281E+00 (   6.581eV) occ=1.000
     0.1459631E+00 (   3.972eV) occ=1.000     0.1498326E+00 (   4.077eV) occ=1.000
     0.1108868E+00 (   3.017eV) occ=1.000     0.1109894E+00 (   3.020eV) occ=1.000
     0.7183988E-01 (   1.955eV) occ=1.000     0.7311100E-01 (   1.989eV) occ=1.000
    -0.1942585E+00 (  -5.286eV) occ=1.000    -0.1895420E+00 (  -5.158eV) occ=1.000
    -0.2342337E+00 (  -6.374eV) occ=1.000    -0.2262944E+00 (  -6.158eV) occ=1.000
    -0.2495087E+00 (  -6.790eV) occ=1.000    -0.2337325E+00 (  -6.360eV) occ=1.000
    -0.2542197E+00 (  -6.918eV) occ=1.000    -0.2500761E+00 (  -6.805eV) occ=1.000
    -0.2560108E+00 (  -6.966eV) occ=1.000    -0.2549735E+00 (  -6.938eV) occ=1.000
    -0.2702186E+00 (  -7.353eV) occ=1.000    -0.2637416E+00 (  -7.177eV) occ=1.000
    -0.2748875E+00 (  -7.480eV) occ=1.000    -0.2681092E+00 (  -7.296eV) occ=1.000
    -0.2848159E+00 (  -7.750eV) occ=1.000    -0.2798452E+00 (  -7.615eV) occ=1.000
    -0.2997730E+00 (  -8.157eV) occ=1.000    -0.2931045E+00 (  -7.976eV) occ=1.000
    -0.3105220E+00 (  -8.450eV) occ=1.000    -0.3065482E+00 (  -8.342eV) occ=1.000
    -0.3312679E+00 (  -9.014eV) occ=1.000    -0.3312531E+00 (  -9.014eV) occ=1.000
    -0.3436922E+00 (  -9.352eV) occ=1.000    -0.3388194E+00 (  -9.220eV) occ=1.000
    -0.3610080E+00 (  -9.824eV) occ=1.000    -0.3560135E+00 (  -9.688eV) occ=1.000
    -0.3715898E+00 ( -10.112eV) occ=1.000    -0.3681168E+00 ( -10.017eV) occ=1.000
    -0.3951667E+00 ( -10.753eV) occ=1.000    -0.3894218E+00 ( -10.597eV) occ=1.000
    -0.4038794E+00 ( -10.990eV) occ=1.000    -0.3965186E+00 ( -10.790eV) occ=1.000
    -0.4179512E+00 ( -11.373eV) occ=1.000    -0.4123561E+00 ( -11.221eV) occ=1.000
    -0.4231118E+00 ( -11.514eV) occ=1.000    -0.4211237E+00 ( -11.459eV) occ=1.000
    -0.4389890E+00 ( -11.946eV) occ=1.000    -0.4292471E+00 ( -11.680eV) occ=1.000
    -0.5311842E+00 ( -14.454eV) occ=1.000    -0.5252597E+00 ( -14.293eV) occ=1.000
    -0.1176794E+01 ( -32.022eV) occ=1.000    -0.1173279E+01 ( -31.927eV) occ=1.000
    -0.1188690E+01 ( -32.346eV) occ=1.000    -0.1183563E+01 ( -32.207eV) occ=1.000
    -0.1218553E+01 ( -33.159eV) occ=1.000    -0.1205747E+01 ( -32.810eV) occ=1.000
    -0.1244311E+01 ( -33.860eV) occ=1.000    -0.1219829E+01 ( -33.193eV) occ=1.000
    -0.1258206E+01 ( -34.238eV) occ=1.000    -0.1247226E+01 ( -33.939eV) occ=1.000
    -0.1258533E+01 ( -34.247eV) occ=1.000    -0.1255042E+01 ( -34.152eV) occ=1.000

 Brillouin zone point:      4
    weight=  0.125000
    k     =<   0.375  -0.375   0.000> . <b1,b2,b3> 
          =<   0.362  -0.362  -0.000>

 orbital energies:
     0.3476259E+00 (   9.459eV) occ=1.000
     0.3425915E+00 (   9.322eV) occ=1.000
     0.3391039E+00 (   9.228eV) occ=1.000     0.3541108E+00 (   9.636eV) occ=1.000
     0.3329245E+00 (   9.059eV) occ=1.000     0.3436505E+00 (   9.351eV) occ=1.000
     0.3261124E+00 (   8.874eV) occ=1.000     0.3424980E+00 (   9.320eV) occ=1.000
     0.3246689E+00 (   8.835eV) occ=1.000     0.3348568E+00 (   9.112eV) occ=1.000
     0.3212381E+00 (   8.741eV) occ=1.000     0.3317813E+00 (   9.028eV) occ=1.000
     0.3186933E+00 (   8.672eV) occ=1.000     0.3287307E+00 (   8.945eV) occ=1.000
     0.3150618E+00 (   8.573eV) occ=1.000     0.3217832E+00 (   8.756eV) occ=1.000
     0.3116750E+00 (   8.481eV) occ=1.000     0.3175903E+00 (   8.642eV) occ=1.000
     0.3089746E+00 (   8.408eV) occ=1.000     0.3147889E+00 (   8.566eV) occ=1.000
     0.3060411E+00 (   8.328eV) occ=1.000     0.3103927E+00 (   8.446eV) occ=1.000
     0.3011198E+00 (   8.194eV) occ=1.000     0.3059983E+00 (   8.327eV) occ=1.000
     0.2972861E+00 (   8.090eV) occ=1.000     0.3013185E+00 (   8.199eV) occ=1.000
     0.2927195E+00 (   7.965eV) occ=1.000     0.2960937E+00 (   8.057eV) occ=1.000
     0.2846351E+00 (   7.745eV) occ=1.000     0.2875061E+00 (   7.824eV) occ=1.000
     0.2798588E+00 (   7.615eV) occ=1.000     0.2813315E+00 (   7.655eV) occ=1.000
     0.2745134E+00 (   7.470eV) occ=1.000     0.2752664E+00 (   7.490eV) occ=1.000
     0.2586433E+00 (   7.038eV) occ=1.000     0.2592478E+00 (   7.055eV) occ=1.000
     0.2484049E+00 (   6.759eV) occ=1.000     0.2487108E+00 (   6.768eV) occ=1.000
     0.1506419E+00 (   4.099eV) occ=1.000     0.1548290E+00 (   4.213eV) occ=1.000
     0.1100466E+00 (   2.995eV) occ=1.000     0.1098066E+00 (   2.988eV) occ=1.000
     0.9886972E-01 (   2.690eV) occ=1.000     0.1016928E+00 (   2.767eV) occ=1.000
    -0.1765444E+00 (  -4.804eV) occ=1.000    -0.1722103E+00 (  -4.686eV) occ=1.000
    -0.2333549E+00 (  -6.350eV) occ=1.000    -0.2224336E+00 (  -6.053eV) occ=1.000
    -0.2454163E+00 (  -6.678eV) occ=1.000    -0.2235581E+00 (  -6.083eV) occ=1.000
    -0.2470925E+00 (  -6.724eV) occ=1.000    -0.2406229E+00 (  -6.548eV) occ=1.000
    -0.2642468E+00 (  -7.191eV) occ=1.000    -0.2645107E+00 (  -7.198eV) occ=1.000
    -0.2720186E+00 (  -7.402eV) occ=1.000    -0.2761944E+00 (  -7.516eV) occ=1.000
    -0.2866126E+00 (  -7.799eV) occ=1.000    -0.2840365E+00 (  -7.729eV) occ=1.000
    -0.2980101E+00 (  -8.109eV) occ=1.000    -0.2911040E+00 (  -7.921eV) occ=1.000
    -0.3145907E+00 (  -8.561eV) occ=1.000    -0.3048644E+00 (  -8.296eV) occ=1.000
    -0.3193696E+00 (  -8.691eV) occ=1.000    -0.3117997E+00 (  -8.485eV) occ=1.000
    -0.3338537E+00 (  -9.085eV) occ=1.000    -0.3334597E+00 (  -9.074eV) occ=1.000
    -0.3489546E+00 (  -9.496eV) occ=1.000    -0.3478661E+00 (  -9.466eV) occ=1.000
    -0.3816119E+00 ( -10.384eV) occ=1.000    -0.3729600E+00 ( -10.149eV) occ=1.000
    -0.3873067E+00 ( -10.539eV) occ=1.000    -0.3851270E+00 ( -10.480eV) occ=1.000
    -0.3956654E+00 ( -10.767eV) occ=1.000    -0.3992113E+00 ( -10.863eV) occ=1.000
    -0.4209564E+00 ( -11.455eV) occ=1.000    -0.4257756E+00 ( -11.586eV) occ=1.000
    -0.4441259E+00 ( -12.085eV) occ=1.000    -0.4281182E+00 ( -11.650eV) occ=1.000
    -0.4461001E+00 ( -12.139eV) occ=1.000    -0.4365969E+00 ( -11.881eV) occ=1.000
    -0.4560058E+00 ( -12.409eV) occ=1.000    -0.4483192E+00 ( -12.199eV) occ=1.000
    -0.5471613E+00 ( -14.889eV) occ=1.000    -0.5407872E+00 ( -14.716eV) occ=1.000
    -0.1175234E+01 ( -31.980eV) occ=1.000    -0.1171245E+01 ( -31.871eV) occ=1.000
    -0.1187047E+01 ( -32.301eV) occ=1.000    -0.1184423E+01 ( -32.230eV) occ=1.000
    -0.1218976E+01 ( -33.170eV) occ=1.000    -0.1204731E+01 ( -32.783eV) occ=1.000
    -0.1241969E+01 ( -33.796eV) occ=1.000    -0.1213808E+01 ( -33.030eV) occ=1.000
    -0.1253043E+01 ( -34.097eV) occ=1.000    -0.1245830E+01 ( -33.901eV) occ=1.000
    -0.1254040E+01 ( -34.124eV) occ=1.000    -0.1249473E+01 ( -34.000eV) occ=1.000

 Brillouin zone point:      5
    weight=  0.125000
    k     =<   0.375   0.125   0.000> . <b1,b2,b3> 
          =<   0.362   0.121  -0.000>

 orbital energies:
     0.3444170E+00 (   9.372eV) occ=1.000
     0.3350398E+00 (   9.117eV) occ=1.000
     0.3301225E+00 (   8.983eV) occ=1.000     0.3374854E+00 (   9.184eV) occ=1.000
     0.3220780E+00 (   8.764eV) occ=1.000     0.3291119E+00 (   8.956eV) occ=1.000
     0.3190072E+00 (   8.681eV) occ=1.000     0.3265725E+00 (   8.887eV) occ=1.000
     0.3168604E+00 (   8.622eV) occ=1.000     0.3206006E+00 (   8.724eV) occ=1.000
     0.3133809E+00 (   8.528eV) occ=1.000     0.3171073E+00 (   8.629eV) occ=1.000
     0.3087435E+00 (   8.401eV) occ=1.000     0.3144300E+00 (   8.556eV) occ=1.000
     0.3063117E+00 (   8.335eV) occ=1.000     0.3110585E+00 (   8.464eV) occ=1.000
     0.3008517E+00 (   8.187eV) occ=1.000     0.3052704E+00 (   8.307eV) occ=1.000
     0.2971002E+00 (   8.085eV) occ=1.000     0.3027101E+00 (   8.237eV) occ=1.000
     0.2922529E+00 (   7.953eV) occ=1.000     0.2933590E+00 (   7.983eV) occ=1.000
     0.2865621E+00 (   7.798eV) occ=1.000     0.2922148E+00 (   7.952eV) occ=1.000
     0.2850404E+00 (   7.756eV) occ=1.000     0.2892847E+00 (   7.872eV) occ=1.000
     0.2770345E+00 (   7.539eV) occ=1.000     0.2770116E+00 (   7.538eV) occ=1.000
     0.2642599E+00 (   7.191eV) occ=1.000     0.2699181E+00 (   7.345eV) occ=1.000
     0.2550341E+00 (   6.940eV) occ=1.000     0.2577071E+00 (   7.013eV) occ=1.000
     0.2497231E+00 (   6.795eV) occ=1.000     0.2531702E+00 (   6.889eV) occ=1.000
     0.2416768E+00 (   6.576eV) occ=1.000     0.2446392E+00 (   6.657eV) occ=1.000
     0.2349299E+00 (   6.393eV) occ=1.000     0.2404091E+00 (   6.542eV) occ=1.000
     0.1461062E+00 (   3.976eV) occ=1.000     0.1483861E+00 (   4.038eV) occ=1.000
     0.1249581E+00 (   3.400eV) occ=1.000     0.1252169E+00 (   3.407eV) occ=1.000
     0.1001355E+00 (   2.725eV) occ=1.000     0.1030980E+00 (   2.805eV) occ=1.000
    -0.1849991E+00 (  -5.034eV) occ=1.000    -0.1800821E+00 (  -4.900eV) occ=1.000
    -0.2452752E+00 (  -6.674eV) occ=1.000    -0.2262126E+00 (  -6.156eV) occ=1.000
    -0.2503980E+00 (  -6.814eV) occ=1.000    -0.2338522E+00 (  -6.363eV) occ=1.000
    -0.2525268E+00 (  -6.872eV) occ=1.000    -0.2503523E+00 (  -6.812eV) occ=1.000
    -0.2605430E+00 (  -7.090eV) occ=1.000    -0.2600140E+00 (  -7.075eV) occ=1.000
    -0.2704516E+00 (  -7.359eV) occ=1.000    -0.2667810E+00 (  -7.260eV) occ=1.000
    -0.2739310E+00 (  -7.454eV) occ=1.000    -0.2795106E+00 (  -7.606eV) occ=1.000
    -0.2863969E+00 (  -7.793eV) occ=1.000    -0.2830608E+00 (  -7.703eV) occ=1.000
    -0.2965976E+00 (  -8.071eV) occ=1.000    -0.2913832E+00 (  -7.929eV) occ=1.000
    -0.3072150E+00 (  -8.360eV) occ=1.000    -0.2937458E+00 (  -7.993eV) occ=1.000
    -0.3315922E+00 (  -9.023eV) occ=1.000    -0.3306055E+00 (  -8.996eV) occ=1.000
    -0.3413044E+00 (  -9.287eV) occ=1.000    -0.3379802E+00 (  -9.197eV) occ=1.000
    -0.3621942E+00 (  -9.856eV) occ=1.000    -0.3551625E+00 (  -9.665eV) occ=1.000
    -0.3711525E+00 ( -10.100eV) occ=1.000    -0.3667040E+00 (  -9.979eV) occ=1.000
    -0.3877223E+00 ( -10.551eV) occ=1.000    -0.3877946E+00 ( -10.553eV) occ=1.000
    -0.3970557E+00 ( -10.805eV) occ=1.000    -0.3973592E+00 ( -10.813eV) occ=1.000
    -0.4181027E+00 ( -11.377eV) occ=1.000    -0.4039223E+00 ( -10.991eV) occ=1.000
    -0.4265372E+00 ( -11.607eV) occ=1.000    -0.4190954E+00 ( -11.404eV) occ=1.000
    -0.4391166E+00 ( -11.949eV) occ=1.000    -0.4336056E+00 ( -11.799eV) occ=1.000
    -0.5457584E+00 ( -14.851eV) occ=1.000    -0.5400632E+00 ( -14.696eV) occ=1.000
    -0.1176796E+01 ( -32.023eV) occ=1.000    -0.1173280E+01 ( -31.927eV) occ=1.000
    -0.1188707E+01 ( -32.347eV) occ=1.000    -0.1183563E+01 ( -32.207eV) occ=1.000
    -0.1218549E+01 ( -33.159eV) occ=1.000    -0.1205065E+01 ( -32.792eV) occ=1.000
    -0.1244315E+01 ( -33.860eV) occ=1.000    -0.1219825E+01 ( -33.193eV) occ=1.000
    -0.1257902E+01 ( -34.230eV) occ=1.000    -0.1247216E+01 ( -33.939eV) occ=1.000
    -0.1258211E+01 ( -34.238eV) occ=1.000    -0.1254983E+01 ( -34.150eV) occ=1.000

 Brillouin zone point:      6
    weight=  0.125000
    k     =<   0.125   0.125   0.000> . <b1,b2,b3> 
          =<   0.121   0.121  -0.000>

 orbital energies:
     0.3373925E+00 (   9.181eV) occ=1.000
     0.3269011E+00 (   8.896eV) occ=1.000
     0.3196023E+00 (   8.697eV) occ=1.000     0.3290934E+00 (   8.955eV) occ=1.000
     0.3154857E+00 (   8.585eV) occ=1.000     0.3249389E+00 (   8.842eV) occ=1.000
     0.3116244E+00 (   8.480eV) occ=1.000     0.3216826E+00 (   8.753eV) occ=1.000
     0.3104863E+00 (   8.449eV) occ=1.000     0.3172741E+00 (   8.634eV) occ=1.000
     0.3084163E+00 (   8.393eV) occ=1.000     0.3136040E+00 (   8.534eV) occ=1.000
     0.3015277E+00 (   8.205eV) occ=1.000     0.3098117E+00 (   8.430eV) occ=1.000
     0.2980760E+00 (   8.111eV) occ=1.000     0.3065791E+00 (   8.343eV) occ=1.000
     0.2939927E+00 (   8.000eV) occ=1.000     0.3014315E+00 (   8.202eV) occ=1.000
     0.2937883E+00 (   7.994eV) occ=1.000     0.2995845E+00 (   8.152eV) occ=1.000
     0.2893537E+00 (   7.874eV) occ=1.000     0.2932622E+00 (   7.980eV) occ=1.000
     0.2846424E+00 (   7.746eV) occ=1.000     0.2883030E+00 (   7.845eV) occ=1.000
     0.2808979E+00 (   7.644eV) occ=1.000     0.2867851E+00 (   7.804eV) occ=1.000
     0.2685250E+00 (   7.307eV) occ=1.000     0.2684445E+00 (   7.305eV) occ=1.000
     0.2496001E+00 (   6.792eV) occ=1.000     0.2522178E+00 (   6.863eV) occ=1.000
     0.2420100E+00 (   6.585eV) occ=1.000     0.2434459E+00 (   6.625eV) occ=1.000
     0.2331778E+00 (   6.345eV) occ=1.000     0.2360689E+00 (   6.424eV) occ=1.000
     0.2030743E+00 (   5.526eV) occ=1.000     0.2055704E+00 (   5.594eV) occ=1.000
     0.1933772E+00 (   5.262eV) occ=1.000     0.1986031E+00 (   5.404eV) occ=1.000
     0.1461138E+00 (   3.976eV) occ=1.000     0.1485055E+00 (   4.041eV) occ=1.000
     0.1262113E+00 (   3.434eV) occ=1.000     0.1266700E+00 (   3.447eV) occ=1.000
     0.7266558E-01 (   1.977eV) occ=1.000     0.7414183E-01 (   2.018eV) occ=1.000
    -0.1905223E+00 (  -5.184eV) occ=1.000    -0.1859124E+00 (  -5.059eV) occ=1.000
    -0.2278120E+00 (  -6.199eV) occ=1.000    -0.2166019E+00 (  -5.894eV) occ=1.000
    -0.2391511E+00 (  -6.508eV) occ=1.000    -0.2319279E+00 (  -6.311eV) occ=1.000
    -0.2423965E+00 (  -6.596eV) occ=1.000    -0.2370913E+00 (  -6.452eV) occ=1.000
    -0.2518146E+00 (  -6.852eV) occ=1.000    -0.2459530E+00 (  -6.693eV) occ=1.000
    -0.2642004E+00 (  -7.189eV) occ=1.000    -0.2566239E+00 (  -6.983eV) occ=1.000
    -0.2710008E+00 (  -7.374eV) occ=1.000    -0.2661014E+00 (  -7.241eV) occ=1.000
    -0.2790418E+00 (  -7.593eV) occ=1.000    -0.2759754E+00 (  -7.510eV) occ=1.000
    -0.2954596E+00 (  -8.040eV) occ=1.000    -0.2917178E+00 (  -7.938eV) occ=1.000
    -0.3088848E+00 (  -8.405eV) occ=1.000    -0.2977910E+00 (  -8.103eV) occ=1.000
    -0.3376556E+00 (  -9.188eV) occ=1.000    -0.3364697E+00 (  -9.156eV) occ=1.000
    -0.3479728E+00 (  -9.469eV) occ=1.000    -0.3466756E+00 (  -9.434eV) occ=1.000
    -0.3512675E+00 (  -9.559eV) occ=1.000    -0.3479463E+00 (  -9.468eV) occ=1.000
    -0.3643115E+00 (  -9.913eV) occ=1.000    -0.3582323E+00 (  -9.748eV) occ=1.000
    -0.3780955E+00 ( -10.289eV) occ=1.000    -0.3746720E+00 ( -10.195eV) occ=1.000
    -0.3881030E+00 ( -10.561eV) occ=1.000    -0.3873689E+00 ( -10.541eV) occ=1.000
    -0.4054650E+00 ( -11.033eV) occ=1.000    -0.3880996E+00 ( -10.561eV) occ=1.000
    -0.4093385E+00 ( -11.139eV) occ=1.000    -0.4007482E+00 ( -10.905eV) occ=1.000
    -0.4098933E+00 ( -11.154eV) occ=1.000    -0.4091498E+00 ( -11.134eV) occ=1.000
    -0.5302209E+00 ( -14.428eV) occ=1.000    -0.5240265E+00 ( -14.260eV) occ=1.000
    -0.1173319E+01 ( -31.928eV) occ=1.000    -0.1170229E+01 ( -31.844eV) occ=1.000
    -0.1185795E+01 ( -32.267eV) occ=1.000    -0.1175143E+01 ( -31.978eV) occ=1.000
    -0.1207821E+01 ( -32.867eV) occ=1.000    -0.1196594E+01 ( -32.561eV) occ=1.000
    -0.1247799E+01 ( -33.955eV) occ=1.000    -0.1234220E+01 ( -33.585eV) occ=1.000
    -0.1267641E+01 ( -34.495eV) occ=1.000    -0.1249480E+01 ( -34.000eV) occ=1.000
    -0.1271147E+01 ( -34.590eV) occ=1.000    -0.1267591E+01 ( -34.493eV) occ=1.000

 Brillouin zone point:      7
    weight=  0.125000
    k     =<   0.125  -0.125   0.000> . <b1,b2,b3> 
          =<   0.121  -0.121  -0.000>

 orbital energies:
     0.3424649E+00 (   9.319eV) occ=1.000
     0.3232808E+00 (   8.797eV) occ=1.000
     0.3161729E+00 (   8.604eV) occ=1.000     0.3294066E+00 (   8.964eV) occ=1.000
     0.3147499E+00 (   8.565eV) occ=1.000     0.3232400E+00 (   8.796eV) occ=1.000
     0.3107279E+00 (   8.455eV) occ=1.000     0.3212814E+00 (   8.743eV) occ=1.000
     0.3094694E+00 (   8.421eV) occ=1.000     0.3172680E+00 (   8.633eV) occ=1.000
     0.3054109E+00 (   8.311eV) occ=1.000     0.3135931E+00 (   8.533eV) occ=1.000
     0.3025389E+00 (   8.233eV) occ=1.000     0.3104653E+00 (   8.448eV) occ=1.000
     0.2997205E+00 (   8.156eV) occ=1.000     0.3063270E+00 (   8.336eV) occ=1.000
     0.2934019E+00 (   7.984eV) occ=1.000     0.3023362E+00 (   8.227eV) occ=1.000
     0.2925805E+00 (   7.962eV) occ=1.000     0.3005607E+00 (   8.179eV) occ=1.000
     0.2878529E+00 (   7.833eV) occ=1.000     0.2924866E+00 (   7.959eV) occ=1.000
     0.2818031E+00 (   7.668eV) occ=1.000     0.2872919E+00 (   7.818eV) occ=1.000
     0.2799379E+00 (   7.618eV) occ=1.000     0.2780481E+00 (   7.566eV) occ=1.000
     0.2732493E+00 (   7.436eV) occ=1.000     0.2719077E+00 (   7.399eV) occ=1.000
     0.2506210E+00 (   6.820eV) occ=1.000     0.2521413E+00 (   6.861eV) occ=1.000
     0.2423061E+00 (   6.594eV) occ=1.000     0.2439078E+00 (   6.637eV) occ=1.000
     0.2333078E+00 (   6.349eV) occ=1.000     0.2371828E+00 (   6.454eV) occ=1.000
     0.2040381E+00 (   5.552eV) occ=1.000     0.2057129E+00 (   5.598eV) occ=1.000
     0.1935063E+00 (   5.266eV) occ=1.000     0.1999941E+00 (   5.442eV) occ=1.000
     0.1492060E+00 (   4.060eV) occ=1.000     0.1519271E+00 (   4.134eV) occ=1.000
     0.1246696E+00 (   3.392eV) occ=1.000     0.1251620E+00 (   3.406eV) occ=1.000
     0.7249893E-01 (   1.973eV) occ=1.000     0.7396990E-01 (   2.013eV) occ=1.000
    -0.1862280E+00 (  -5.068eV) occ=1.000    -0.1820440E+00 (  -4.954eV) occ=1.000
    -0.2320591E+00 (  -6.315eV) occ=1.000    -0.2161218E+00 (  -5.881eV) occ=1.000
    -0.2382101E+00 (  -6.482eV) occ=1.000    -0.2319668E+00 (  -6.312eV) occ=1.000
    -0.2438388E+00 (  -6.635eV) occ=1.000    -0.2437596E+00 (  -6.633eV) occ=1.000
    -0.2514354E+00 (  -6.842eV) occ=1.000    -0.2477215E+00 (  -6.741eV) occ=1.000
    -0.2637028E+00 (  -7.176eV) occ=1.000    -0.2551025E+00 (  -6.942eV) occ=1.000
    -0.2723324E+00 (  -7.411eV) occ=1.000    -0.2640345E+00 (  -7.185eV) occ=1.000
    -0.2802334E+00 (  -7.626eV) occ=1.000    -0.2774895E+00 (  -7.551eV) occ=1.000
    -0.2954449E+00 (  -8.040eV) occ=1.000    -0.2912617E+00 (  -7.926eV) occ=1.000
    -0.3085667E+00 (  -8.397eV) occ=1.000    -0.2979435E+00 (  -8.108eV) occ=1.000
    -0.3396974E+00 (  -9.244eV) occ=1.000    -0.3370201E+00 (  -9.171eV) occ=1.000
    -0.3481846E+00 (  -9.475eV) occ=1.000    -0.3456821E+00 (  -9.407eV) occ=1.000
    -0.3515352E+00 (  -9.566eV) occ=1.000    -0.3479657E+00 (  -9.469eV) occ=1.000
    -0.3646839E+00 (  -9.924eV) occ=1.000    -0.3628057E+00 (  -9.873eV) occ=1.000
    -0.3782938E+00 ( -10.294eV) occ=1.000    -0.3725748E+00 ( -10.138eV) occ=1.000
    -0.3849614E+00 ( -10.475eV) occ=1.000    -0.3872647E+00 ( -10.538eV) occ=1.000
    -0.4027646E+00 ( -10.960eV) occ=1.000    -0.3880705E+00 ( -10.560eV) occ=1.000
    -0.4094336E+00 ( -11.141eV) occ=1.000    -0.3955113E+00 ( -10.762eV) occ=1.000
    -0.4100211E+00 ( -11.157eV) occ=1.000    -0.4100323E+00 ( -11.158eV) occ=1.000
    -0.5313303E+00 ( -14.458eV) occ=1.000    -0.5250476E+00 ( -14.287eV) occ=1.000
    -0.1173310E+01 ( -31.928eV) occ=1.000    -0.1170229E+01 ( -31.844eV) occ=1.000
    -0.1185777E+01 ( -32.267eV) occ=1.000    -0.1175143E+01 ( -31.978eV) occ=1.000
    -0.1207818E+01 ( -32.867eV) occ=1.000    -0.1196560E+01 ( -32.560eV) occ=1.000
    -0.1247798E+01 ( -33.955eV) occ=1.000    -0.1234221E+01 ( -33.585eV) occ=1.000
    -0.1267656E+01 ( -34.495eV) occ=1.000    -0.1249483E+01 ( -34.000eV) occ=1.000
    -0.1271149E+01 ( -34.590eV) occ=1.000    -0.1267609E+01 ( -34.494eV) occ=1.000

 Brillouin zone point:      8
    weight=  0.125000
    k     =<   0.375  -0.125   0.000> . <b1,b2,b3> 
          =<   0.362  -0.121  -0.000>

 orbital energies:
     0.3435964E+00 (   9.350eV) occ=1.000
     0.3381384E+00 (   9.201eV) occ=1.000
     0.3314385E+00 (   9.019eV) occ=1.000     0.3341455E+00 (   9.093eV) occ=1.000
     0.3219617E+00 (   8.761eV) occ=1.000     0.3310437E+00 (   9.008eV) occ=1.000
     0.3192045E+00 (   8.686eV) occ=1.000     0.3282970E+00 (   8.933eV) occ=1.000
     0.3175898E+00 (   8.642eV) occ=1.000     0.3212341E+00 (   8.741eV) occ=1.000
     0.3130597E+00 (   8.519eV) occ=1.000     0.3163159E+00 (   8.607eV) occ=1.000
     0.3068319E+00 (   8.349eV) occ=1.000     0.3132238E+00 (   8.523eV) occ=1.000
     0.3058251E+00 (   8.322eV) occ=1.000     0.3078917E+00 (   8.378eV) occ=1.000
     0.3008525E+00 (   8.187eV) occ=1.000     0.3061732E+00 (   8.331eV) occ=1.000
     0.2954770E+00 (   8.040eV) occ=1.000     0.2996211E+00 (   8.153eV) occ=1.000
     0.2932304E+00 (   7.979eV) occ=1.000     0.2944669E+00 (   8.013eV) occ=1.000
     0.2875231E+00 (   7.824eV) occ=1.000     0.2932455E+00 (   7.980eV) occ=1.000
     0.2851581E+00 (   7.760eV) occ=1.000     0.2894574E+00 (   7.877eV) occ=1.000
     0.2792781E+00 (   7.600eV) occ=1.000     0.2807682E+00 (   7.640eV) occ=1.000
     0.2625186E+00 (   7.144eV) occ=1.000     0.2704748E+00 (   7.360eV) occ=1.000
     0.2553867E+00 (   6.949eV) occ=1.000     0.2578950E+00 (   7.018eV) occ=1.000
     0.2511427E+00 (   6.834eV) occ=1.000     0.2555365E+00 (   6.954eV) occ=1.000
     0.2410374E+00 (   6.559eV) occ=1.000     0.2453481E+00 (   6.676eV) occ=1.000
     0.2349542E+00 (   6.393eV) occ=1.000     0.2393704E+00 (   6.514eV) occ=1.000
     0.1460773E+00 (   3.975eV) occ=1.000     0.1483289E+00 (   4.036eV) occ=1.000
     0.1253169E+00 (   3.410eV) occ=1.000     0.1255933E+00 (   3.418eV) occ=1.000
     0.9935269E-01 (   2.704eV) occ=1.000     0.1020779E+00 (   2.778eV) occ=1.000
    -0.1819270E+00 (  -4.951eV) occ=1.000    -0.1770164E+00 (  -4.817eV) occ=1.000
    -0.2441833E+00 (  -6.645eV) occ=1.000    -0.2264090E+00 (  -6.161eV) occ=1.000
    -0.2507107E+00 (  -6.822eV) occ=1.000    -0.2337057E+00 (  -6.360eV) occ=1.000
    -0.2540752E+00 (  -6.914eV) occ=1.000    -0.2512626E+00 (  -6.837eV) occ=1.000
    -0.2617336E+00 (  -7.122eV) occ=1.000    -0.2614610E+00 (  -7.115eV) occ=1.000
    -0.2707251E+00 (  -7.367eV) occ=1.000    -0.2658427E+00 (  -7.234eV) occ=1.000
    -0.2734609E+00 (  -7.441eV) occ=1.000    -0.2793663E+00 (  -7.602eV) occ=1.000
    -0.2861509E+00 (  -7.787eV) occ=1.000    -0.2815682E+00 (  -7.662eV) occ=1.000
    -0.2979688E+00 (  -8.108eV) occ=1.000    -0.2928212E+00 (  -7.968eV) occ=1.000
    -0.3092430E+00 (  -8.415eV) occ=1.000    -0.2976278E+00 (  -8.099eV) occ=1.000
    -0.3315453E+00 (  -9.022eV) occ=1.000    -0.3308938E+00 (  -9.004eV) occ=1.000
    -0.3446692E+00 (  -9.379eV) occ=1.000    -0.3384221E+00 (  -9.209eV) occ=1.000
    -0.3606062E+00 (  -9.813eV) occ=1.000    -0.3560880E+00 (  -9.690eV) occ=1.000
    -0.3710407E+00 ( -10.097eV) occ=1.000    -0.3677715E+00 ( -10.008eV) occ=1.000
    -0.3855289E+00 ( -10.491eV) occ=1.000    -0.3828588E+00 ( -10.418eV) occ=1.000
    -0.3980694E+00 ( -10.832eV) occ=1.000    -0.3958563E+00 ( -10.772eV) occ=1.000
    -0.4169179E+00 ( -11.345eV) occ=1.000    -0.4067349E+00 ( -11.068eV) occ=1.000
    -0.4241164E+00 ( -11.541eV) occ=1.000    -0.4194119E+00 ( -11.413eV) occ=1.000
    -0.4392600E+00 ( -11.953eV) occ=1.000    -0.4309246E+00 ( -11.726eV) occ=1.000
    -0.5468603E+00 ( -14.881eV) occ=1.000    -0.5411065E+00 ( -14.724eV) occ=1.000
    -0.1176796E+01 ( -32.022eV) occ=1.000    -0.1173282E+01 ( -31.927eV) occ=1.000
    -0.1188675E+01 ( -32.346eV) occ=1.000    -0.1183559E+01 ( -32.207eV) occ=1.000
    -0.1218544E+01 ( -33.159eV) occ=1.000    -0.1205019E+01 ( -32.790eV) occ=1.000
    -0.1244314E+01 ( -33.860eV) occ=1.000    -0.1219827E+01 ( -33.193eV) occ=1.000
    -0.1257923E+01 ( -34.230eV) occ=1.000    -0.1247220E+01 ( -33.939eV) occ=1.000
    -0.1258215E+01 ( -34.238eV) occ=1.000    -0.1255011E+01 ( -34.151eV) occ=1.000

 Total BAND energy   :  -0.3398261098E+03


=== Spin Contamination ===

 <Sexact^2> =    2.0000000000000000     
 <S^2>      =    7.7603262047243646     



========================
= Gradient calculation =
========================


Translation force removed: (   -0.00094   -0.00012    0.00043)


          =============  Ion Gradients =================
 Ion Forces:
        1 U    (    0.00094    0.00012   -0.00043 )
        2 U    (    0.00094    0.00012   -0.00043 )
        3 U    (    0.00094    0.00012   -0.00043 )
        4 U    (    0.00094    0.00012   -0.00043 )
        5 U    (    0.00094    0.00012   -0.00043 )
        6 U    (    0.00094    0.00012   -0.00043 )
        7 O    (    0.01303   -0.02155   -0.08010 )
        8 O    (   -0.09687    0.01050    0.11889 )
        C.O.M. (    0.00000    0.00000    0.00000 )
          ===============================================
          |F|       =   0.175177E+00
          |F|/nion  =   0.218972E-01
          max|Fatom|=   0.153720E+00 (   7.905eV/Angstrom)


 ------------------------------------------------------------------------
 control_num_kvectors_structure: failed        0
 ------------------------------------------------------------------------
 An error occured in the Runtime Database
 ------------------------------------------------------------------------
 For more information see the NWChem manual at http://www.nwchem-sw.org/index.php/NWChem_Documentation


 For further details see manual section:                                                                                                                                                                                                                                                                
 control_num_kvectors_structure: failed        0
 ------------------------------------------------------------------------
 An error occured in the Runtime Database
 ------------------------------------------------------------------------
 For more information see the NWChem manual at http://www.nwchem-sw.org/index.php/NWChem_Documentation


 For further details see manual section:                                                                                                                                                                                                                                                                
 control_num_kvectors_structure: failed        0
 ------------------------------------------------------------------------
 An error occured in the Runtime Database
 ------------------------------------------------------------------------
 For more information see the NWChem manual at http://www.nwchem-sw.org/index.php/NWChem_Documentation


 For further details see manual section:                                                                                                                                                                                                                                                                
 control_num_kvectors_structure: failed        0
 ------------------------------------------------------------------------
 An error occured in the Runtime Database
 ------------------------------------------------------------------------
 For more information see the NWChem manual at http://www.nwchem-sw.org/index.php/NWChem_Documentation


 For further details see manual section:                                                                                                                                                                                                                                                                
 control_num_kvectors_structure: failed        0
 ------------------------------------------------------------------------
 An error occured in the Runtime Database
 ------------------------------------------------------------------------
 For more information see the NWChem manual at http://www.nwchem-sw.org/index.php/NWChem_Documentation


 For further details see manual section:                                                                                                                                                                                                                                                                
 control_num_kvectors_structure: failed        0
 ------------------------------------------------------------------------
 An error occured in the Runtime Database
 ------------------------------------------------------------------------
 For more information see the NWChem manual at http://www.nwchem-sw.org/index.php/NWChem_Documentation


 For further details see manual section:                                                                                                                                                                                                                                                                
 control_num_kvectors_structure: failed        0
 ------------------------------------------------------------------------
 An error occured in the Runtime Database
 ------------------------------------------------------------------------
 For more information see the NWChem manual at http://www.nwchem-sw.org/index.php/NWChem_Documentation


 For further details see manual section:                                                                                                                                                                                                                                                                
 control_num_kvectors_structure: failed        0
 ------------------------------------------------------------------------
 An error occured in the Runtime Database
 ------------------------------------------------------------------------
 For more information see the NWChem manual at http://www.nwchem-sw.org/index.php/NWChem_Documentation


 For further details see manual section:                                                                                                                                                                                                                                                                
 control_num_kvectors_structure: failed        0
 ------------------------------------------------------------------------
 An error occured in the Runtime Database
 ------------------------------------------------------------------------
 For more information see the NWChem manual at http://www.nwchem-sw.org/index.php/NWChem_Documentation


 For further details see manual section:                                                                                                                                                                                                                                                                
170:170:control_num_kvectors_structure: failed:: 0
 control_num_kvectors_structure: failed        0
 ------------------------------------------------------------------------
 An error occured in the Runtime Database
 ------------------------------------------------------------------------
 For more information see the NWChem manual at http://www.nwchem-sw.org/index.php/NWChem_Documentation


 For further details see manual section:                                                                                                                                                                                                                                                                
 control_num_kvectors_structure: failed        0
 ------------------------------------------------------------------------
 An error occured in the Runtime Database
 ------------------------------------------------------------------------
 For more information see the NWChem manual at http://www.nwchem-sw.org/index.php/NWChem_Documentation


 For further details see manual section:                                                                                                                                                                                                                                                                
Last System Error Message from Task 170:: Numerical result out of range
 control_num_kvectors_structure: failed        0
 ------------------------------------------------------------------------
 An error occured in the Runtime Database
 ------------------------------------------------------------------------
 For more information see the NWChem manual at http://www.nwchem-sw.org/index.php/NWChem_Documentation


 For further details see manual section:                                                                                                                                                                                                                                                                
 control_num_kvectors_structure: failed        0
 ------------------------------------------------------------------------
 An error occured in the Runtime Database
 ------------------------------------------------------------------------
 For more information see the NWChem manual at http://www.nwchem-sw.org/index.php/NWChem_Documentation


 For further details see manual section:                                                                                                                                                                                                                                                                
 control_num_kvectors_structure: failed        0
 ------------------------------------------------------------------------
 An error occured in the Runtime Database
 ------------------------------------------------------------------------
 For more information see the NWChem manual at http://www.nwchem-sw.org/index.php/NWChem_Documentation


 For further details see manual section:                                                                                                                                                                                                                                                                
 control_num_kvectors_structure: failed        0
 ------------------------------------------------------------------------
 An error occured in the Runtime Database
 ------------------------------------------------------------------------
 For more information see the NWChem manual at http://www.nwchem-sw.org/index.php/NWChem_Documentation


 For further details see manual section:                                                                                                                                                                                                                                                                
 control_num_kvectors_structure: failed        0
 ------------------------------------------------------------------------
 An error occured in the Runtime Database
 ------------------------------------------------------------------------
 For more information see the NWChem manual at http://www.nwchem-sw.org/index.php/NWChem_Documentation


 For further details see manual section:                                                                                                                                                                                                                                                                
 control_num_kvectors_structure: failed        0
 ------------------------------------------------------------------------
 An error occured in the Runtime Database
 ------------------------------------------------------------------------
 For more information see the NWChem manual at http://www.nwchem-sw.org/index.php/NWChem_Documentation


 For further details see manual section:                                                                                                                                                                                                                                                                
(rank:170 hostname:taub348 pid:9600):ARMCI DASSERT fail. ../../ga-5-1/armci/src/common/armci.c:ARMCI_Error():208 cond:0
159:159:control_num_kvectors_structure: failed:: 0
 control_num_kvectors_structure: failed        0
 ------------------------------------------------------------------------
 An error occured in the Runtime Database
 ------------------------------------------------------------------------
 For more information see the NWChem manual at http://www.nwchem-sw.org/index.php/NWChem_Documentation


 For further details see manual section:                                                                                                                                                                                                                                                                
 control_num_kvectors_structure: failed        0
 ------------------------------------------------------------------------
 An error occured in the Runtime Database
 ------------------------------------------------------------------------
 For more information see the NWChem manual at http://www.nwchem-sw.org/index.php/NWChem_Documentation


 For further details see manual section:                                                                                                                                                                                                                                                                
 control_num_kvectors_structure: failed        0
[...]
6:6:control_num_kvectors_structure: failed:: 0
(rank:6 hostname:taub511 pid:26612):ARMCI DASSERT fail. ../../ga-5-1/armci/src/common/armci.c:ARMCI_Error():208 cond:0
Last System Error Message from Task 6:: Numerical result out of range
(rank:10 hostname:taub511 pid:26616):ARMCI DASSERT fail. ../../ga-5-1/armci/src/common/armci.c:ARMCI_Error():208 cond:0
Last System Error Message from Task 10:: Numerical result out of range
11:11:control_num_kvectors_structure: failed:: 0
(rank:11 hostname:taub511 pid:26617):ARMCI DASSERT fail. ../../ga-5-1/armci/src/common/armci.c:ARMCI_Error():208 cond:0
Last System Error Message from Task 11:: Numerical result out of range
(rank:0 hostname:taub511 pid:26606):ARMCI DASSERT fail. ../../ga-5-1/armci/src/common/armci.c:ARMCI_Error():208 cond:0
Last System Error Message from Task 0:: Numerical result out of range
application called MPI_Abort(comm=0x84000003, 0) - process 195
application called MPI_Abort(comm=0x84000003, 0) - process 100
application called MPI_Abort(comm=0x84000003, 0) - process 153
application called MPI_Abort(comm=0x84000003, 0) - process 154
application called MPI_Abort(comm=0x84000003, 0) - process 150
application called MPI_Abort(comm=0x84000003, 0) - process 50
application called MPI_Abort(comm=0x84000003, 0) - process 170
application called MPI_Abort(comm=0x84000003, 0) - process 223
application called MPI_Abort(comm=0x84000003, 0) - process 32
application called MPI_Abort(comm=0x84000003, 0) - process 225
application called MPI_Abort(comm=0x84000003, 0) - process 121
application called MPI_Abort(comm=0x84000003, 0) - process 111
application called MPI_Abort(comm=0x84000003, 0) - process 125
application called MPI_Abort(comm=0x84000003, 0) - process 56
application called MPI_Abort(comm=0x84000003, 0) - process 123
application called MPI_Abort(comm=0x84000003, 0) - process 66
application called MPI_Abort(comm=0x84000003, 0) - process 33
application called MPI_Abort(comm=0x84000003, 0) - process 34
application called MPI_Abort(comm=0x84000003, 0) - process 197
application called MPI_Abort(comm=0x84000003, 0) - process 178
application called MPI_Abort(comm=0x84000003, 0) - process 101
application called MPI_Abort(comm=0x84000003, 0) - process 196
application called MPI_Abort(comm=0x84000003, 0) - process 98
application called MPI_Abort(comm=0x84000003, 0) - process 174
application called MPI_Abort(comm=0x84000003, 0) - process 227
application called MPI_Abort(comm=0x84000003, 0) - process 236
application called MPI_Abort(comm=0x84000003, 0) - process 191
application called MPI_Abort(comm=0x84000003, 0) - process 185
application called MPI_Abort(comm=0x84000003, 0) - process 231
application called MPI_Abort(comm=0x84000003, 0) - process 232
application called MPI_Abort(comm=0x84000003, 0) - process 119
application called MPI_Abort(comm=0x84000003, 0) - process 26
application called MPI_Abort(comm=0x84000003, 0) - process 222
application called MPI_Abort(comm=0x84000003, 0) - process 145
application called MPI_Abort(comm=0x84000003, 0) - process 158
application called MPI_Abort(comm=0x84000003, 0) - process 147
application called MPI_Abort(comm=0x84000003, 0) - process 31
application called MPI_Abort(comm=0x84000003, 0) - process 80
application called MPI_Abort(comm=0x84000003, 0) - process 149
application called MPI_Abort(comm=0x84000003, 0) - process 27
application called MPI_Abort(comm=0x84000003, 0) - process 93
application called MPI_Abort(comm=0x84000003, 0) - process 253
application called MPI_Abort(comm=0x84000003, 0) - process 117
application called MPI_Abort(comm=0x84000003, 0) - process 263
application called MPI_Abort(comm=0x84000003, 0) - process 59
application called MPI_Abort(comm=0x84000003, 0) - process 118
application called MPI_Abort(comm=0x84000003, 0) - process 179
application called MPI_Abort(comm=0x84000003, 0) - process 218
application called MPI_Abort(comm=0x84000003, 0) - process 83
application called MPI_Abort(comm=0x84000003, 0) - process 269
application called MPI_Abort(comm=0x84000003, 0) - process 148
application called MPI_Abort(comm=0x84000003, 0) - process 71
application called MPI_Abort(comm=0x84000003, 0) - process 261
application called MPI_Abort(comm=0x84000003, 0) - process 114
application called MPI_Abort(comm=0x84000003, 0) - process 249
application called MPI_Abort(comm=0x84000003, 0) - process 82
application called MPI_Abort(comm=0x84000003, 0) - process 248
application called MPI_Abort(comm=0x84000003, 0) - process 262
application called MPI_Abort(comm=0x84000003, 0) - process 85
application called MPI_Abort(comm=0x84000003, 0) - process 182
application called MPI_Abort(comm=0x84000003, 0) - process 53
application called MPI_Abort(comm=0x84000003, 0) - process 115
application called MPI_Abort(comm=0x84000003, 0) - process 133
application called MPI_Abort(comm=0x84000003, 0) - process 256
application called MPI_Abort(comm=0x84000003, 0) - process 159
application called MPI_Abort(comm=0x84000003, 0) - process 73
application called MPI_Abort(comm=0x84000003, 0) - process 287
application called MPI_Abort(comm=0x84000003, 0) - process 242
application called MPI_Abort(comm=0x84000003, 0) - process 105
application called MPI_Abort(comm=0x84000003, 0) - process 52
application called MPI_Abort(comm=0x84000003, 0) - process 68
application called MPI_Abort(comm=0x84000003, 0) - process 201
application called MPI_Abort(comm=0x84000003, 0) - process 162
application called MPI_Abort(comm=0x84000003, 0) - process 244
application called MPI_Abort(comm=0x84000003, 0) - process 135
application called MPI_Abort(comm=0x84000003, 0) - process 92
application called MPI_Abort(comm=0x84000003, 0) - process 243
application called MPI_Abort(comm=0x84000003, 0) - process 198
application called MPI_Abort(comm=0x84000003, 0) - process 136
application called MPI_Abort(comm=0x84000005, 0) - process 180
application called MPI_Abort(comm=0x84000003, 0) - process 203
application called MPI_Abort(comm=0x84000003, 0) - process 270
application called MPI_Abort(comm=0x84000003, 0) - process 157
application called MPI_Abort(comm=0x84000003, 0) - process 265
application called MPI_Abort(comm=0x84000003, 0) - process 106
application called MPI_Abort(comm=0x84000003, 0) - process 200
application called MPI_Abort(comm=0x84000003, 0) - process 16
application called MPI_Abort(comm=0x84000003, 0) - process 241
application called MPI_Abort(comm=0x84000003, 0) - process 171
application called MPI_Abort(comm=0x84000003, 0) - process 77
application called MPI_Abort(comm=0x84000003, 0) - process 20
application called MPI_Abort(comm=0x84000003, 0) - process 165
application called MPI_Abort(comm=0x84000003, 0) - process 271
application called MPI_Abort(comm=0x84000003, 0) - process 202
application called MPI_Abort(comm=0x84000003, 0) - process 273
application called MPI_Abort(comm=0x84000003, 0) - process 62
application called MPI_Abort(comm=0x84000005, 0) - process 228
application called MPI_Abort(comm=0x84000003, 0) - process 272
application called MPI_Abort(comm=0x84000003, 0) - process 164
application called MPI_Abort(comm=0x84000003, 0) - process 286
application called MPI_Abort(comm=0x84000003, 0) - process 166
application called MPI_Abort(comm=0x84000003, 0) - process 188
application called MPI_Abort(comm=0x84000003, 0) - process 189
application called MPI_Abort(comm=0x84000003, 0) - process 19
application called MPI_Abort(comm=0x84000003, 0) - process 131
application called MPI_Abort(comm=0x84000005, 0) - process 264
application called MPI_Abort(comm=0x84000003, 0) - process 107
application called MPI_Abort(comm=0x84000003, 0) - process 130
application called MPI_Abort(comm=0x84000003, 0) - process 49
application called MPI_Abort(comm=0x84000003, 0) - process 138
application called MPI_Abort(comm=0x84000003, 0) - process 139
application called MPI_Abort(comm=0x84000003, 0) - process 74
application called MPI_Abort(comm=0x84000003, 0) - process 17
application called MPI_Abort(comm=0x84000003, 0) - process 167
application called MPI_Abort(comm=0x84000003, 0) - process 63
application called MPI_Abort(comm=0x84000003, 0) - process 187
application called MPI_Abort(comm=0x84000003, 0) - process 75
application called MPI_Abort(comm=0x84000003, 0) - process 102
application called MPI_Abort(comm=0x84000005, 0) - process 48
application called MPI_Abort(comm=0x84000003, 0) - process 13
application called MPI_Abort(comm=0x84000003, 0) - process 76
application called MPI_Abort(comm=0x84000003, 0) - process 64
application called MPI_Abort(comm=0x84000003, 0) - process 103
application called MPI_Abort(comm=0x84000003, 0) - process 9
application called MPI_Abort(comm=0x84000003, 0) - process 190
application called MPI_Abort(comm=0x84000003, 0) - process 282
application called MPI_Abort(comm=0x84000003, 0) - process 140
application called MPI_Abort(comm=0x84000003, 0) - process 238
application called MPI_Abort(comm=0x84000005, 0) - process 216
application called MPI_Abort(comm=0x84000003, 0) - process 255
application called MPI_Abort(comm=0x84000003, 0) - process 11
application called MPI_Abort(comm=0x84000005, 0) - process 240
application called MPI_Abort(comm=0x84000005, 0) - process 168
application called MPI_Abort(comm=0x84000003, 0) - process 65
application called MPI_Abort(comm=0x84000003, 0) - process 129
application called MPI_Abort(comm=0x84000003, 0) - process 126
application called MPI_Abort(comm=0x84000003, 0) - process 41
application called MPI_Abort(comm=0x84000003, 0) - process 127
application called MPI_Abort(comm=0x84000003, 0) - process 47
application called MPI_Abort(comm=0x84000003, 0) - process 94
application called MPI_Abort(comm=0x84000003, 0) - process 39
application called MPI_Abort(comm=0x84000003, 0) - process 46
application called MPI_Abort(comm=0x84000003, 0) - process 215
application called MPI_Abort(comm=0x84000003, 0) - process 3
application called MPI_Abort(comm=0x84000003, 0) - process 128
application called MPI_Abort(comm=0x84000003, 0) - process 43
application called MPI_Abort(comm=0x84000003, 0) - process 212
application called MPI_Abort(comm=0x84000003, 0) - process 281
application called MPI_Abort(comm=0x84000003, 0) - process 95
application called MPI_Abort(comm=0x84000005, 0) - process 60
application called MPI_Abort(comm=0x84000003, 0) - process 208
application called MPI_Abort(comm=0x84000005, 0) - process 252
application called MPI_Abort(comm=0x84000003, 0) - process 205
application called MPI_Abort(comm=0x84000003, 0) - process 260
application called MPI_Abort(comm=0x84000003, 0) - process 209
application called MPI_Abort(comm=0x84000003, 0) - process 211
application called MPI_Abort(comm=0x84000005, 0) - process 12
application called MPI_Abort(comm=0x84000003, 0) - process 18
application called MPI_Abort(comm=0x84000003, 0) - process 277
application called MPI_Abort(comm=0x84000003, 0) - process 88
application called MPI_Abort(comm=0x84000003, 0) - process 42
application called MPI_Abort(comm=0x84000003, 0) - process 207
application called MPI_Abort(comm=0x84000003, 0) - process 280
application called MPI_Abort(comm=0x84000003, 0) - process 110
application called MPI_Abort(comm=0x84000003, 0) - process 274
application called MPI_Abort(comm=0x84000003, 0) - process 176
application called MPI_Abort(comm=0x84000003, 0) - process 266
application called MPI_Abort(comm=0x84000003, 0) - process 278
application called MPI_Abort(comm=0x84000003, 0) - process 89
application called MPI_Abort(comm=0x84000005, 0) - process 72
application called MPI_Abort(comm=0x84000003, 0) - process 51
application called MPI_Abort(comm=0x84000003, 0) - process 5
application called MPI_Abort(comm=0x84000003, 0) - process 21
application called MPI_Abort(comm=0x84000003, 0) - process 109
application called MPI_Abort(comm=0x84000003, 0) - process 23
application called MPI_Abort(comm=0x84000003, 0) - process 61
application called MPI_Abort(comm=0x84000003, 0) - process 237
application called MPI_Abort(comm=0x84000003, 0) - process 163
application called MPI_Abort(comm=0x84000003, 0) - process 35
application called MPI_Abort(comm=0x84000003, 0) - process 279
application called MPI_Abort(comm=0x84000003, 0) - process 87
application called MPI_Abort(comm=0x84000003, 0) - process 161
application called MPI_Abort(comm=0x84000003, 0) - process 259
application called MPI_Abort(comm=0x84000005, 0) - process 36
application called MPI_Abort(comm=0x84000003, 0) - process 14
application called MPI_Abort(comm=0x84000003, 0) - process 54
application called MPI_Abort(comm=0x84000003, 0) - process 251
application called MPI_Abort(comm=0x84000005, 0) - process 276
application called MPI_Abort(comm=0x84000003, 0) - process 245
application called MPI_Abort(comm=0x84000003, 0) - process 78
application called MPI_Abort(comm=0x84000003, 0) - process 79
application called MPI_Abort(comm=0x84000005, 0) - process 204
application called MPI_Abort(comm=0x84000003, 0) - process 81
application called MPI_Abort(comm=0x84000003, 0) - process 146
application called MPI_Abort(comm=0x84000003, 0) - process 15
application called MPI_Abort(comm=0x84000003, 0) - process 22
application called MPI_Abort(comm=0x84000003, 0) - process 234
application called MPI_Abort(comm=0x84000003, 0) - process 90
application called MPI_Abort(comm=0x84000003, 0) - process 91
application called MPI_Abort(comm=0x84000003, 0) - process 160
application called MPI_Abort(comm=0x84000003, 0) - process 257
application called MPI_Abort(comm=0x84000003, 0) - process 177
application called MPI_Abort(comm=0x84000003, 0) - process 30
application called MPI_Abort(comm=0x84000003, 0) - process 69
application called MPI_Abort(comm=0x84000003, 0) - process 258
application called MPI_Abort(comm=0x84000003, 0) - process 193
application called MPI_Abort(comm=0x84000003, 0) - process 67
application called MPI_Abort(comm=0x84000003, 0) - process 175
application called MPI_Abort(comm=0x84000003, 0) - process 104
application called MPI_Abort(comm=0x84000003, 0) - process 250
application called MPI_Abort(comm=0x84000003, 0) - process 247
application called MPI_Abort(comm=0x84000005, 0) - process 84
application called MPI_Abort(comm=0x84000003, 0) - process 230
application called MPI_Abort(comm=0x84000003, 0) - process 2
application called MPI_Abort(comm=0x84000003, 0) - process 70
application called MPI_Abort(comm=0x84000003, 0) - process 186
application called MPI_Abort(comm=0x84000003, 0) - process 155
application called MPI_Abort(comm=0x84000003, 0) - process 142
application called MPI_Abort(comm=0x84000003, 0) - process 219
application called MPI_Abort(comm=0x84000003, 0) - process 143
application called MPI_Abort(comm=0x84000003, 0) - process 6
application called MPI_Abort(comm=0x84000003, 0) - process 1
application called MPI_Abort(comm=0x84000003, 0) - process 254
application called MPI_Abort(comm=0x84000003, 0) - process 233
application called MPI_Abort(comm=0x84000003, 0) - process 221
application called MPI_Abort(comm=0x84000003, 0) - process 29
application called MPI_Abort(comm=0x84000003, 0) - process 181
application called MPI_Abort(comm=0x84000003, 0) - process 184
application called MPI_Abort(comm=0x84000003, 0) - process 226
application called MPI_Abort(comm=0x84000003, 0) - process 224
application called MPI_Abort(comm=0x84000003, 0) - process 169
application called MPI_Abort(comm=0x84000003, 0) - process 141
application called MPI_Abort(comm=0x84000003, 0) - process 268
application called MPI_Abort(comm=0x84000005, 0) - process 156
application called MPI_Abort(comm=0x84000003, 0) - process 116
application called MPI_Abort(comm=0x84000003, 0) - process 113
application called MPI_Abort(comm=0x84000003, 0) - process 246
application called MPI_Abort(comm=0x84000003, 0) - process 210
application called MPI_Abort(comm=0x84000005, 0) - process 144
application called MPI_Abort(comm=0x84000003, 0) - process 213
application called MPI_Abort(comm=0x84000003, 0) - process 217
application called MPI_Abort(comm=0x84000003, 0) - process 58
application called MPI_Abort(comm=0x84000003, 0) - process 214
application called MPI_Abort(comm=0x84000003, 0) - process 152
application called MPI_Abort(comm=0x84000003, 0) - process 239
application called MPI_Abort(comm=0x84000003, 0) - process 45
application called MPI_Abort(comm=0x84000003, 0) - process 206
application called MPI_Abort(comm=0x84000003, 0) - process 86
application called MPI_Abort(comm=0x84000003, 0) - process 229
application called MPI_Abort(comm=0x84000005, 0) - process 108
application called MPI_Abort(comm=0x84000003, 0) - process 112
application called MPI_Abort(comm=0x84000003, 0) - process 25
application called MPI_Abort(comm=0x84000003, 0) - process 55
application called MPI_Abort(comm=0x84000003, 0) - process 8
application called MPI_Abort(comm=0x84000003, 0) - process 275
application called MPI_Abort(comm=0x84000003, 0) - process 28
application called MPI_Abort(comm=0x84000003, 0) - process 44
application called MPI_Abort(comm=0x84000003, 0) - process 57
application called MPI_Abort(comm=0x84000003, 0) - process 37
application called MPI_Abort(comm=0x84000003, 0) - process 38
application called MPI_Abort(comm=0x84000003, 0) - process 122
application called MPI_Abort(comm=0x84000003, 0) - process 40
application called MPI_Abort(comm=0x84000003, 0) - process 10
application called MPI_Abort(comm=0x84000003, 0) - process 235
application called MPI_Abort(comm=0x84000003, 0) - process 285
application called MPI_Abort(comm=0x84000003, 0) - process 283
application called MPI_Abort(comm=0x84000003, 0) - process 284
application called MPI_Abort(comm=0x84000003, 0) - process 173
application called MPI_Abort(comm=0x84000003, 0) - process 124
application called MPI_Abort(comm=0x84000003, 0) - process 220
application called MPI_Abort(comm=0x84000003, 0) - process 134
application called MPI_Abort(comm=0x84000003, 0) - process 183
application called MPI_Abort(comm=0x84000005, 0) - process 0
application called MPI_Abort(comm=0x84000005, 0) - process 120
application called MPI_Abort(comm=0x84000003, 0) - process 97
application called MPI_Abort(comm=0x84000003, 0) - process 99
application called MPI_Abort(comm=0x84000003, 0) - process 137
application called MPI_Abort(comm=0x84000003, 0) - process 4
application called MPI_Abort(comm=0x84000005, 0) - process 24
application called MPI_Abort(comm=0x84000005, 0) - process 96
application called MPI_Abort(comm=0x84000003, 0) - process 7
application called MPI_Abort(comm=0x84000003, 0) - process 199
application called MPI_Abort(comm=0x84000003, 0) - process 194
application called MPI_Abort(comm=0x84000005, 0) - process 192
application called MPI_Abort(comm=0x84000003, 0) - process 151
application called MPI_Abort(comm=0x84000003, 0) - process 267
application called MPI_Abort(comm=0x84000003, 0) - process 172
application called MPI_Abort(comm=0x84000005, 0) - process 132
mkdir: cannot create directory `/home/davis68/def-gamma-ads//U6O2-100-opt': File exists
cp: cannot stat `./U6O2-100-opt.out': No such file or directory
----------------------------------------
Begin Torque Epilogue (Sun Mar 10 19:33:59 2013)
Job ID:           385025.taubm1.campuscluster.illinois.edu
Username:         davis68
Group:            npre_rizwan
Job Name:         U6O2-100-opt
Session:          26543
Limits:           ncpus=1,neednodes=24:ppn=12,nodes=24:ppn=12,walltime=04:00:00
Resources:        cput=641:41:26,mem=94431784kb,vmem=587379752kb,walltime=02:20:59
Job Queue:        cse
Account:          NPRE
Nodes:            taub286 taub308 taub315 taub316 taub317 taub318 taub327 taub339 taub340 taub348 taub357 taub359 taub367 taub449 taub450 taub457 taub458 taub465 taub468 taub498 taub502 taub503 taub510 taub511
End Torque Epilogue
----------------------------------------
