 argument  1 = ./U6O2-100-opt.nw



============================== echo of input deck ==============================
title "Gamma-uranium (100) adsorption"
echo

permanent_dir ./perm
scratch_dir   ./scratch

start U6O2-100-crossctr

memory 2500 mb

nwpw
  # Real-space discretization
  simulation_cell
    ngrid 64 64 512
  end

  # Spin multiplicity---quenched to 1 in the solid state
  mult 3

  # Band, k-point sampling, and parallelism
  monkhorst-pack 4 4 1
  np_dimensions 8 12 8
  mapping 2

  # Periodicity considerations
  ewald_rcut 3.0
  ewald_ncut 8

  # Simulation parameters
  #restricted    # DFT||ODFT||RESTRICTED||UNRESTRICTED
  xc pbe96
  cutoff 90.0
  loop 10 300
  tolerances 1.0e-7 1.0e-7
end
set nwpw:minimizer      2
set nwpw:lcao_skip      .true.
set nwpw:kbpp_ray       .true.
set nwpw:kbpp_filter    .true.

## Optimization ##
driver
  #clear                # Deletes all restart data
  loose               # Specify loose, default, or tight convergence
  xyz U6O2     # Output XYZ file of geometry at each stage
  maxiter 80
end
set driver:linopt 0
set nwpw:cif_filename U6O2.opt
set nwpw:psi_nolattice .true.

#       (100) gamma-uranium surface with surface displacements:	29.7%	-15.3%	and X displacement of	1.75	Å
geometry	center	noautosym	noautoz	print
	system	crystal
	lat_a	3.44
	lat_b	3.44
	lat_c	22.32
	alpha	90.0d0
	beta	90.0d0
	gamma	90.0d0
	end
	U1	0.50000	0.50000	0.72009
	U2	0.00000	0.00000	0.66591
	U3	0.50000	0.50000	0.57706
	U4	0.00000	0.00000	0.50000
	U5	0.50000	0.50000	0.41115
	U6	0.00000	0.00000	0.35697
	O1	0.31780	0.24024	0.80170
	O2	0.94023	0.34890	0.78916
end
constraints surf
  fix atom 1:6
end
set constraints surf
task band optimize ignore

# A.M.D.G.
================================================================================


                                         
                                         


             Northwest Computational Chemistry Package (NWChem) 6.1.1
             --------------------------------------------------------


                    Environmental Molecular Sciences Laboratory
                       Pacific Northwest National Laboratory
                                Richland, WA 99352

                              Copyright (c) 1994-2012
                       Pacific Northwest National Laboratory
                            Battelle Memorial Institute

             NWChem is an open-source computational chemistry package
                        distributed under the terms of the
                      Educational Community License (ECL) 2.0
             A copy of the license is included with this distribution
                              in the LICENSE.TXT file

                                  ACKNOWLEDGMENT
                                  --------------

            This software and its documentation were developed at the
            EMSL at Pacific Northwest National Laboratory, a multiprogram
            national laboratory, operated for the U.S. Department of Energy
            by Battelle under Contract Number DE-AC05-76RL01830. Support
            for this work was provided by the Department of Energy Office
            of Biological and Environmental Research, Office of Basic
            Energy Sciences, and the Office of Advanced Scientific Computing.


           Job information
           ---------------

    hostname        = taub410
    program         = /home/davis68/bin/nwchem-dev
    date            = Tue Apr  2 23:16:29 2013

    compiled        = Wed_Oct_03_09:41:00_2012
    source          = /home/davis68/nwchem/nwchem-src-2012-Aug-27/
    nwchem branch   = Development
    nwchem revision = 22805
    ga revision     = 10079
    input           = ./U6O2-100-opt.nw
    prefix          = U6O2-100-crossctr.
    data base       = ./perm/U6O2-100-crossctr.db
    status          = startup
    nproc           =      288
    time left       =     -1s



           Memory information
           ------------------

    heap     =   81920001 doubles =    625.0 Mbytes
    stack    =   81920001 doubles =    625.0 Mbytes
    global   =  163840000 doubles =   1250.0 Mbytes (distinct from heap & stack)
    total    =  327680002 doubles =   2500.0 Mbytes
    verify   = yes
    hardfail = no 


           Directory information
           ---------------------

  0 permanent = ./perm
  0 scratch   = ./scratch




                                NWChem Input Module
                                -------------------


                          Gamma-uranium (100) adsorption
                          ------------------------------

  !!!!!!!!!  geom_3d NEEDS TESTING !!!!!!!!!! 


                             Geometry "geometry" -> ""
                             -------------------------

 Output coordinates in angstroms (scale by  1.889725989 to convert to a.u.)

  No.       Tag          Charge          X              Y              Z
 ---- ---------------- ---------- -------------- -------------- --------------
    1 U1                  92.0000     1.72000000     1.72000000    16.07240880
    2 U2                  92.0000     0.00000000     0.00000000    14.86311120
    3 U3                  92.0000     1.72000000     1.72000000    12.87997920
    4 U4                  92.0000     0.00000000     0.00000000    11.16000000
    5 U5                  92.0000     1.72000000     1.72000000     9.17686800
    6 U6                  92.0000     0.00000000     0.00000000     7.96757040
    7 O1                   8.0000     1.09323200     0.82642560    17.89394400
    8 O2                   8.0000     3.23439120     1.20021600    17.61405120

      Lattice Parameters 
      ------------------ 

      lattice vectors in angstroms (scale by  1.889725989 to convert to a.u.)

      a1=<   3.440   0.000   0.000 >
      a2=<   0.000   3.440   0.000 >
      a3=<   0.000   0.000  22.320 >
      a=       3.440 b=      3.440 c=      22.320
      alpha=  90.000 beta=  90.000 gamma=  90.000
      omega=   264.1

      reciprocal lattice vectors in a.u.

      b1=<   0.967   0.000  -0.000 >
      b2=<  -0.000   0.967  -0.000 >
      b3=<   0.000   0.000   0.149 >

      Atomic Mass 
      ----------- 

      U1               238.050800
      U2               238.050800
      U3               238.050800
      U4               238.050800
      U5               238.050800
      U6               238.050800
      O1                15.994910
      O2                15.994910


 ==============================================================================
                                internuclear distances
 ------------------------------------------------------------------------------
       center one      |      center two      | atomic units |  angstroms
 ------------------------------------------------------------------------------
    2 U2               |   1 U1               |     5.13338  |     2.71647
    3 U3               |   1 U1               |     6.03282  |     3.19243
    3 U3               |   2 U2               |     5.93073  |     3.13841
    4 U4               |   2 U2               |     6.99787  |     3.70311
    4 U4               |   3 U3               |     5.62971  |     2.97912
    5 U5               |   3 U3               |     6.99787  |     3.70311
    5 U5               |   4 U4               |     5.93073  |     3.13841
    6 U6               |   4 U4               |     6.03282  |     3.19243
    6 U6               |   5 U5               |     5.13338  |     2.71647
    7 O1               |   1 U1               |     4.01286  |     2.12351
    8 O2               |   1 U1               |     4.20022  |     2.22266
 ------------------------------------------------------------------------------
                         number of included internuclear distances:         11
 ==============================================================================



 ==============================================================================
                                 internuclear angles
 ------------------------------------------------------------------------------
        center 1       |       center 2       |       center 3       |  degrees
 ------------------------------------------------------------------------------
    1 U1               |   2 U2               |   3 U3               |    65.62
    2 U2               |   1 U1               |   7 O1               |    85.90
    2 U2               |   1 U1               |   8 O2               |   126.31
    3 U3               |   1 U1               |   7 O1               |   149.07
    3 U3               |   1 U1               |   8 O2               |   133.92
    7 O1               |   1 U1               |   8 O2               |    60.51
    1 U1               |   2 U2               |   3 U3               |    65.62
    1 U1               |   2 U2               |   4 U4               |   116.43
    2 U2               |   3 U3               |   4 U4               |    74.45
    3 U3               |   2 U2               |   1 U1               |    65.62
    1 U1               |   3 U3               |   4 U4               |   125.26
    1 U1               |   3 U3               |   5 U5               |   180.00
    2 U2               |   3 U3               |   4 U4               |    74.45
    2 U2               |   3 U3               |   5 U5               |   129.19
    3 U3               |   4 U4               |   5 U5               |    74.45
    4 U4               |   3 U3               |   2 U2               |    74.45
    2 U2               |   4 U4               |   5 U5               |   129.19
    2 U2               |   4 U4               |   6 U6               |   180.00
    3 U3               |   4 U4               |   5 U5               |    74.45
    3 U3               |   4 U4               |   6 U6               |   125.26
    4 U4               |   5 U5               |   6 U6               |    65.62
    5 U5               |   4 U4               |   3 U3               |    74.45
    3 U3               |   5 U5               |   6 U6               |   116.43
    4 U4               |   5 U5               |   6 U6               |    65.62
    6 U6               |   5 U5               |   4 U4               |    65.62
 ------------------------------------------------------------------------------
                            number of included internuclear angles:         25
 ==============================================================================



 fixed atoms                  :   1     2     3     4
                                  5     6


 no springs found
                         NWChem Constraints Module
                         -------------------------
 General Information
 -------------------
 fixed atoms                  :   1     2     3     4
                                  5     6


 no springs found
 no springs found


                           NWChem Geometry Optimization
                           ----------------------------




                          Gamma-uranium (100) adsorption


 maximum gradient threshold         (gmax) =   0.004500
 rms gradient threshold             (grms) =   0.003000
 maximum cartesian step threshold   (xmax) =   0.018000
 rms cartesian step threshold       (xrms) =   0.012000
 fixed trust radius                (trust) =   0.300000
 maximum step size to saddle      (sadstp) =   0.100000
 energy precision                  (eprec) =   1.0D-07
 maximum number of steps          (nptopt) =   80
 initial hessian option           (inhess) =    0
 line search option               (linopt) =    0
 hessian update option            (modupd) =    1
 saddle point option              (modsad) =    0
 initial eigen-mode to follow     (moddir) =    0
 initial variable to follow       (vardir) =    0
 follow first negative mode     (firstneg) =    T
 apply conjugacy                    (opcg) =    F
 source of zmatrix                         =           


          -------------------
          Energy Minimization
          -------------------


 Using diagonal initial Hessian 

          --------
          Step   0
          --------


                         Geometry "geometry" -> "geometry"
                         ---------------------------------

 Output coordinates in angstroms (scale by  1.889725989 to convert to a.u.)

  No.       Tag          Charge          X              Y              Z
 ---- ---------------- ---------- -------------- -------------- --------------
    1 U1                  92.0000     1.72000000     1.72000000    16.07240880
    2 U2                  92.0000     0.00000000     0.00000000    14.86311120
    3 U3                  92.0000     1.72000000     1.72000000    12.87997920
    4 U4                  92.0000     0.00000000     0.00000000    11.16000000
    5 U5                  92.0000     1.72000000     1.72000000     9.17686800
    6 U6                  92.0000     0.00000000     0.00000000     7.96757040
    7 O1                   8.0000     1.09323200     0.82642560    17.89394400
    8 O2                   8.0000     3.23439120     1.20021600    17.61405120

      Lattice Parameters 
      ------------------ 

      lattice vectors in angstroms (scale by  1.889725989 to convert to a.u.)

      a1=<   3.440   0.000   0.000 >
      a2=<   0.000   3.440   0.000 >
      a3=<   0.000   0.000  22.320 >
      a=       3.440 b=      3.440 c=      22.320
      alpha=  90.000 beta=  90.000 gamma=  90.000
      omega=   264.1

      reciprocal lattice vectors in a.u.

      b1=<   0.967   0.000  -0.000 >
      b2=<  -0.000   0.967  -0.000 >
      b3=<   0.000   0.000   0.149 >

      Atomic Mass 
      ----------- 

      U1               238.050800
      U2               238.050800
      U3               238.050800
      U4               238.050800
      U5               238.050800
      U6               238.050800
      O1                15.994910
      O2                15.994910


          **********************************************************
          *                                                        *
          *                   NWPW BAND Calculation                *
          *                                                        *
          *  [(bundled Grassman/Stiefel manifold implementation)]  *
          *                                                        *
          *         [ NorthWest Chemistry implementation ]         *
          *                                                        *
          *                version #1.10   01/31/03                *
          *                                                        *
          *  A pseudopotential plane-wave band structure program   *
          *  with Brillouin zone sampling for optimizing crystals, *
          *  slabs, and polymers.  Developed by Eric J. Bylaska    *
          *  , Edoardo Apra, and Patrick Nichols.                  *
          *                                                        *
          **********************************************************
     >>>  JOB STARTED       AT Tue Apr  2 23:17:08 2013  <<<
          ================ input data ========================
  library name resolved from: environment
  NWCHEM_NWPW_LIBRARY set to: </home/davis68/nwchem/nwchem-6.1/src/nwpw/libraryps/>
 Generating 1d pseudopotential for U   

 Generated formatted_filename: ./perm/U.cpp
 - Spline fitted, nray=40299 -
 - filtered -
  library name resolved from: environment
  NWCHEM_NWPW_LIBRARY set to: </home/davis68/nwchem/nwchem-6.1/src/nwpw/libraryps/>
 Generating 1d pseudopotential for O   

 Generated formatted_filename: ./perm/O.cpp
 - Spline fitted, nray=40299 -
 - filtered -
 random planewave guess, initial psi:U6O2-100-crossctr.movecs                          
 -   spin, nalpha, nbeta:                    2                   49                   47

 input psi filename:./perm/U6O2-100-crossctr.movecs
Warning - Orthogonalization performed, spin,zone: 1   1
        - error(before)=  0.684681E+01 (  0.421532E+02)
        - error(after)=   0.142109E-13 (  0.490000E+02)
Warning - Orthogonalization performed, spin,zone: 2   1
        - error(before)=  0.657160E+01 (  0.404284E+02)
        - error(after)=   0.000000E+00 (  0.470000E+02)
Warning - Orthogonalization performed, spin,zone: 1   2
        - error(before)=  0.684676E+01 (  0.421532E+02)
        - error(after)=   0.000000E+00 (  0.490000E+02)
Warning - Orthogonalization performed, spin,zone: 2   2
        - error(before)=  0.657184E+01 (  0.404282E+02)
        - error(after)=   0.710543E-14 (  0.470000E+02)
Warning - Orthogonalization performed, spin,zone: 1   3
        - error(before)=  0.684743E+01 (  0.421526E+02)
        - error(after)=   0.710543E-14 (  0.490000E+02)
Warning - Orthogonalization performed, spin,zone: 2   3
        - error(before)=  0.657140E+01 (  0.404286E+02)
        - error(after)=   0.142109E-13 (  0.470000E+02)
Warning - Orthogonalization performed, spin,zone: 1   4
        - error(before)=  0.684692E+01 (  0.421531E+02)
        - error(after)=   0.710543E-14 (  0.490000E+02)
Warning - Orthogonalization performed, spin,zone: 2   4
        - error(before)=  0.657164E+01 (  0.404284E+02)
        - error(after)=   0.142109E-13 (  0.470000E+02)
Warning - Orthogonalization performed, spin,zone: 1   5
        - error(before)=  0.684772E+01 (  0.421523E+02)
        - error(after)=   0.000000E+00 (  0.490000E+02)
Warning - Orthogonalization performed, spin,zone: 2   5
        - error(before)=  0.657270E+01 (  0.404273E+02)
        - error(after)=   0.710543E-14 (  0.470000E+02)
Warning - Orthogonalization performed, spin,zone: 1   6
        - error(before)=  0.684806E+01 (  0.421519E+02)
        - error(after)=   0.000000E+00 (  0.490000E+02)
Warning - Orthogonalization performed, spin,zone: 2   6
        - error(before)=  0.657281E+01 (  0.404272E+02)
        - error(after)=   0.142109E-13 (  0.470000E+02)
Warning - Orthogonalization performed, spin,zone: 1   7
        - error(before)=  0.684855E+01 (  0.421514E+02)
        - error(after)=   0.000000E+00 (  0.490000E+02)
Warning - Orthogonalization performed, spin,zone: 2   7
        - error(before)=  0.657109E+01 (  0.404289E+02)
        - error(after)=   0.710543E-14 (  0.470000E+02)
Warning - Orthogonalization performed, spin,zone: 1   8
        - error(before)=  0.684620E+01 (  0.421538E+02)
        - error(after)=   0.710543E-14 (  0.490000E+02)
Warning - Orthogonalization performed, spin,zone: 2   8
        - error(before)=  0.657306E+01 (  0.404269E+02)
        - error(after)=   0.000000E+00 (  0.470000E+02)

 Fixed ion positions:    1    2    3    4    5    6


 number of processors used:             288
 processor grid           :  36 x   1 x   8
 parallel mapping         :     2d  hilbert

 options:
      boundary conditions  = periodic    (version3)
      electron spin        = unrestricted
      exchange-correlation = PBE96 (White and Bird) parameterization

 elements involved in the cluster:
      1: U     core charge:14.0  lmax=3
             comment    : Parameterized (J.Chem. Phys. vol 128, 124507 (2008)) Troullier-Martins psp
             pseudpotential type            :   0
             highest angular component      :   3
             local potential used           :   0
             number of non-local projections:  15
             cutoff =   1.421   1.602   2.400   1.250
      2: O     core charge: 6.0  lmax=2
             comment    : Parameterized (Chem.Phys.Lett., vol 322, page 447) Hamman psp
             pseudpotential type            :   0
             highest angular component      :   2
             local potential used           :   2
             number of non-local projections:   4
             cutoff =   0.700   0.700   0.700

 total charge:   0.000

 atomic composition:
     U   :  6     O   :  2

 number of electrons: spin up=   49.00  spin down=   47.00 (fourier space)
 number of orbitals:  spin up=      49  spin down=      47 (fourier space)

 supercell:
      lattice:    a1=<   6.501   0.000   0.000 >
                  a2=<   0.000   6.501   0.000 >
                  a3=<   0.000   0.000  42.179 >
      reciprocal: b1=<   0.967   0.000  -0.000 >
                  b2=<  -0.000   0.967  -0.000 >
                  b3=<   0.000   0.000   0.149 >

      lattice:    a=   6.501    b=   6.501     c=  42.179
              alpha=  90.000 beta=  90.000 gamma=  90.000
      volume :     1782.4
      ewald summation: cut radius=    3.00  and  8
                        madelung=-3.34887517

 brillouin zone:
      number of zone points:     8
      weight=   0.125  ks=<   0.375   0.375   0.000 >, k=<   0.362   0.362  -0.000>
      weight=   0.125  ks=<   0.125   0.375   0.000 >, k=<   0.121   0.362  -0.000>
      weight=   0.125  ks=<  -0.125   0.375   0.000 >, k=<  -0.121   0.362  -0.000>
      weight=   0.125  ks=<   0.375  -0.375   0.000 >, k=<   0.362  -0.362  -0.000>
      weight=   0.125  ks=<   0.375   0.125   0.000 >, k=<   0.362   0.121  -0.000>
      weight=   0.125  ks=<   0.125   0.125   0.000 >, k=<   0.121   0.121  -0.000>
      weight=   0.125  ks=<   0.125  -0.125   0.000 >, k=<   0.121  -0.121  -0.000>
      weight=   0.125  ks=<   0.375  -0.125   0.000 >, k=<   0.362  -0.121  -0.000>

 computational grids:
      density     cutoff=180.000  fft=  64x  64x 512(   205623 waves     5711 per task)
      wavefnc   1 cutoff= 90.000  fft=  64x  64x 512(    72794 waves     2022 per task)
      wavefnc   2 cutoff= 90.000  fft=  64x  64x 512(    72667 waves     2018 per task)
      wavefnc   3 cutoff= 90.000  fft=  64x  64x 512(    72667 waves     2018 per task)
      wavefnc   4 cutoff= 90.000  fft=  64x  64x 512(    72794 waves     2022 per task)
      wavefnc   5 cutoff= 90.000  fft=  64x  64x 512(    72667 waves     2018 per task)
      wavefnc   6 cutoff= 90.000  fft=  64x  64x 512(    72659 waves     2018 per task)
      wavefnc   7 cutoff= 90.000  fft=  64x  64x 512(    72659 waves     2018 per task)
      wavefnc   8 cutoff= 90.000  fft=  64x  64x 512(    72667 waves     2018 per task)

 technical parameters:
      time step=      5.80     ficticious mass=  400000.0
      tolerance=.100E-06 (energy)   0.100E-06 (density)
      maximum iterations =      3000 (   10 inner    300 outer )



= energy calculation =


          ======== bundled Grassmann lmbfgs iteration ========
     >>>  ITERATION STARTED AT Tue Apr  2 23:28:00 2013  <<<
    iter.           Energy         DeltaE       DeltaRho 
    ------------------------------------------------------
     -  10 steepest descent iterations performed
      10   -0.3108930906E+03   -0.48525E+01    0.11063E+02
     -  10 steepest descent iterations performed
      20   -0.3349878713E+03   -0.53234E+00    0.23268E+00
     -  10 steepest descent iterations performed
      30   -0.3377449845E+03   -0.12924E+00    0.34934E-01
     -  10 steepest descent iterations performed
      40   -0.3386573322E+03   -0.49516E-01    0.11603E-01
     -  10 steepest descent iterations performed
      50   -0.3390725738E+03   -0.24689E-01    0.28762E-02
     -  10 steepest descent iterations performed
      60   -0.3393003680E+03   -0.13381E-01    0.22142E-02
     -  10 steepest descent iterations performed
      70   -0.3394376216E+03   -0.84657E-02    0.94310E-03
      80   -0.3396063764E+03   -0.61933E-02    0.58795E-02
      90   -0.3396421193E+03   -0.42292E-02    0.51847E-03
     100   -0.3396874097E+03   -0.35145E-02    0.17302E-02
     110   -0.3397100102E+03   -0.16091E-02    0.61176E-03
     120   -0.3397296635E+03   -0.22061E-02    0.10016E-02
     -  10 steepest descent iterations performed
     130   -0.3397475216E+03   -0.10353E-02    0.20441E-03
     140   -0.3397638269E+03   -0.18181E-02    0.10455E-02
     -  10 steepest descent iterations performed
     150   -0.3397734630E+03   -0.56561E-03    0.27219E-03
     160   -0.3397813153E+03   -0.82730E-03    0.93573E-03
     -  10 steepest descent iterations performed
     170   -0.3397889388E+03   -0.39813E-03    0.21090E-03
     180   -0.3397941364E+03   -0.56587E-03    0.60550E-03
     -  10 steepest descent iterations performed
     190   -0.3398001888E+03   -0.34359E-03    0.27414E-03
     200   -0.3398042493E+03   -0.40394E-03    0.51619E-03
     -  10 steepest descent iterations performed
     210   -0.3398093149E+03   -0.26497E-03    0.17550E-03
     220   -0.3398123746E+03   -0.32482E-03    0.34316E-03
     -  10 steepest descent iterations performed
     230   -0.3398164065E+03   -0.23255E-03    0.19591E-03
     240   -0.3398189820E+03   -0.25074E-03    0.31510E-03
     -  10 steepest descent iterations performed
     250   -0.3398224360E+03   -0.18535E-03    0.12967E-03
     260   -0.3398244812E+03   -0.21101E-03    0.22456E-03
     -  10 steepest descent iterations performed
     270   -0.3398272701E+03   -0.15965E-03    0.12961E-03
     280   -0.3398289363E+03   -0.15241E-03    0.18302E-03
     290   -0.3398358529E+03   -0.28848E-03    0.34230E-02
     -  10 steepest descent iterations performed
     300   -0.3398381396E+03   -0.98751E-04    0.58617E-04
     310   -0.3398388525E+03   -0.70896E-04    0.40157E-04
     320   -0.3398402415E+03   -0.79496E-04    0.30879E-03
     -  10 steepest descent iterations performed
     330   -0.3398412665E+03   -0.62670E-04    0.34414E-04
     340   -0.3398420093E+03   -0.10176E-03    0.10946E-03
     -  10 steepest descent iterations performed
     350   -0.3398427648E+03   -0.47833E-04    0.33096E-04
     360   -0.3398434036E+03   -0.55739E-04    0.13051E-03
     -  10 steepest descent iterations performed
     370   -0.3398442145E+03   -0.57499E-04    0.33763E-04
     -  10 steepest descent iterations performed
     380   -0.3398447745E+03   -0.42134E-04    0.60949E-04
     390   -0.3398462988E+03   -0.20774E-03    0.11301E-02
     -  10 steepest descent iterations performed
     400   -0.3398478473E+03   -0.52166E-04    0.15353E-04
     410   -0.3398480849E+03   -0.24004E-04    0.15915E-04
     420   -0.3398495675E+03   -0.14694E-03    0.12953E-02
     -  10 steepest descent iterations performed
     430   -0.3398508041E+03   -0.57707E-04    0.14731E-04
     440   -0.3398510494E+03   -0.17695E-04    0.99558E-05
     450   -0.3398515405E+03   -0.52986E-04    0.15536E-03
     -  10 steepest descent iterations performed
     460   -0.3398520509E+03   -0.26009E-04    0.13772E-04
     470   -0.3398523237E+03   -0.33414E-04    0.41442E-04
     -  10 steepest descent iterations performed
     480   -0.3398526622E+03   -0.26777E-04    0.18332E-04
     490   -0.3398530009E+03   -0.32892E-04    0.92647E-04
     -  10 steepest descent iterations performed
     500   -0.3398534251E+03   -0.26509E-04    0.14295E-04
     510   -0.3398536208E+03   -0.21289E-04    0.27824E-04
     520   -0.3398544448E+03   -0.77863E-04    0.77550E-03
     -  10 steepest descent iterations performed
     530   -0.3398552155E+03   -0.21922E-04    0.80917E-05
     540   -0.3398553687E+03   -0.15285E-04    0.97272E-05
     550   -0.3398555636E+03   -0.17233E-04    0.43770E-04
     -  10 steepest descent iterations performed
     560   -0.3398558201E+03   -0.14471E-04    0.11177E-04
     570   -0.3398559752E+03   -0.21140E-04    0.29148E-04
     -  10 steepest descent iterations performed
     580   -0.3398561863E+03   -0.20584E-04    0.12178E-04
     590   -0.3398563334E+03   -0.93086E-05    0.28531E-04
     600   -0.3398571135E+03   -0.53359E-04    0.12524E-02
     -  10 steepest descent iterations performed
     610   -0.3398576452E+03   -0.11567E-04    0.31866E-05
     620   -0.3398577282E+03   -0.91799E-05    0.37912E-05
     630   -0.3398577840E+03   -0.41549E-05    0.55999E-05
     640   -0.3398580539E+03   -0.51632E-04    0.28698E-03
     -  10 steepest descent iterations performed
     650   -0.3398582455E+03   -0.49096E-05    0.19580E-05
     660   -0.3398582991E+03   -0.34825E-05    0.23569E-05
     670   -0.3398583352E+03   -0.38508E-05    0.40539E-05
     -  10 steepest descent iterations performed
     680   -0.3398583846E+03   -0.61650E-05    0.33515E-05
     -  10 steepest descent iterations performed
     690   -0.3398584147E+03   -0.17549E-05    0.13364E-05
     700   -0.3398585525E+03   -0.18699E-04    0.13819E-03
     -  10 steepest descent iterations performed
     710   -0.3398586599E+03   -0.26256E-05    0.53373E-06
     720   -0.3398586746E+03   -0.17896E-05    0.54430E-06
     730   -0.3398587005E+03   -0.21423E-05    0.46999E-05
     -  10 steepest descent iterations performed
     740   -0.3398587300E+03   -0.14075E-05    0.83777E-06
     750   -0.3398587462E+03   -0.16331E-05    0.17248E-05
     -  10 steepest descent iterations performed
     760   -0.3398587684E+03   -0.16110E-05    0.10255E-05
     770   -0.3398587852E+03   -0.19561E-05    0.24387E-05
     -  10 steepest descent iterations performed
     780   -0.3398588097E+03   -0.17018E-05    0.85374E-06
     790   -0.3398588205E+03   -0.10629E-05    0.10043E-05
     800   -0.3398589320E+03   -0.12458E-04    0.18241E-03
     -  10 steepest descent iterations performed
     810   -0.3398590117E+03   -0.15796E-05    0.66896E-06
     820   -0.3398590233E+03   -0.83190E-06    0.34968E-06
     830   -0.3398590294E+03   -0.79401E-06    0.45945E-06
     840   -0.3398590597E+03   -0.41006E-05    0.23037E-04
     -  10 steepest descent iterations performed
     850   -0.3398590884E+03   -0.44167E-06    0.21662E-06
     860   -0.3398590956E+03   -0.82843E-06    0.42982E-06
     -  10 steepest descent iterations performed
     870   -0.3398591030E+03   -0.10442E-05    0.53450E-06
     -  10 steepest descent iterations performed
     880   -0.3398591093E+03   -0.40155E-06    0.28998E-06
     890   -0.3398591330E+03   -0.30506E-05    0.19193E-04
     -  10 steepest descent iterations performed
     900   -0.3398591570E+03   -0.52255E-06    0.12543E-06
     910   -0.3398591604E+03   -0.47060E-06    0.21411E-06
     920   -0.3398591874E+03   -0.32870E-05    0.27711E-04
     -  10 steepest descent iterations performed
     930   -0.3398592133E+03   -0.39636E-06    0.20314E-06
     940   -0.3398592169E+03   -0.29339E-06    0.15929E-06
     950   -0.3398592262E+03   -0.14408E-05    0.32083E-05
     -  10 steepest descent iterations performed
     960   -0.3398592364E+03   -0.50582E-06    0.15992E-06
     970   -0.3398592416E+03   -0.78299E-06    0.69734E-06
     -  10 steepest descent iterations performed
     980   -0.3398592484E+03   -0.41710E-06    0.34002E-06
     990   -0.3398592549E+03   -0.72808E-06    0.15316E-05
     -  10 steepest descent iterations performed
    1000   -0.3398592639E+03   -0.59729E-06    0.26540E-06
    1010   -0.3398592676E+03   -0.43690E-06    0.41977E-06
    1020   -0.3398592969E+03   -0.38953E-05    0.41659E-04
     -  10 steepest descent iterations performed
    1030   -0.3398593250E+03   -0.64188E-06    0.14689E-06
    1040   -0.3398593301E+03   -0.41505E-06    0.18583E-06
    1050   -0.3398593341E+03   -0.41678E-06    0.41622E-06
     -  10 steepest descent iterations performed
    1060   -0.3398593404E+03   -0.55565E-06    0.40804E-06
     -  10 steepest descent iterations performed
    1070   -0.3398593450E+03   -0.33774E-06    0.26233E-06
    1080   -0.3398593592E+03   -0.26078E-05    0.10266E-04
     -  10 steepest descent iterations performed
    1090   -0.3398593741E+03   -0.61732E-06    0.87053E-07
    1100   -0.3398593776E+03   -0.26913E-06    0.18860E-06
    1110   -0.3398593868E+03   -0.65135E-06    0.36507E-05
     -  10 steepest descent iterations performed
    1120   -0.3398593973E+03   -0.33832E-06    0.18175E-06
    1130   -0.3398594015E+03   -0.38548E-06    0.41089E-06
     -  10 steepest descent iterations performed
    1140   -0.3398594072E+03   -0.53579E-06    0.39709E-06
     -  10 steepest descent iterations performed
    1150   -0.3398594116E+03   -0.33824E-06    0.23690E-06
    1160   -0.3398594304E+03   -0.17712E-05    0.17640E-04
     -  10 steepest descent iterations performed
    1170   -0.3398594497E+03   -0.63676E-06    0.14118E-06
    1180   -0.3398594528E+03   -0.27161E-06    0.10146E-06
    1190   -0.3398594597E+03   -0.13591E-05    0.19255E-05
     -  10 steepest descent iterations performed
    1200   -0.3398594678E+03   -0.31192E-06    0.12924E-06
    1210   -0.3398594732E+03   -0.60306E-06    0.93997E-06
     -  10 steepest descent iterations performed
    1220   -0.3398594800E+03   -0.58650E-06    0.25612E-06
    1230   -0.3398594848E+03   -0.51531E-06    0.69882E-06
    1240   -0.3398595368E+03   -0.84591E-05    0.13500E-03
     -  10 steepest descent iterations performed
    1250   -0.3398595912E+03   -0.73548E-06    0.12249E-06
    1260   -0.3398595976E+03   -0.53849E-06    0.13002E-06
    1270   -0.3398596025E+03   -0.33430E-06    0.33257E-06
    1280   -0.3398596165E+03   -0.24346E-05    0.67475E-05
     -  10 steepest descent iterations performed
    1290   -0.3398596328E+03   -0.45919E-06    0.10468E-06
    1300   -0.3398596392E+03   -0.78918E-06    0.45654E-06
     -  10 steepest descent iterations performed
    1310   -0.3398596461E+03   -0.56714E-06    0.34261E-06
    1320   -0.3398596592E+03   -0.16086E-05    0.47034E-05
     -  10 steepest descent iterations performed
    1330   -0.3398596744E+03   -0.78325E-06    0.16532E-06
    1340   -0.3398596803E+03   -0.55803E-06    0.34484E-06
    1350   -0.3398596934E+03   -0.17090E-05    0.39301E-05
     -  10 steepest descent iterations performed
    1360   -0.3398597100E+03   -0.54401E-06    0.24482E-06
    1370   -0.3398597173E+03   -0.70389E-06    0.54550E-06
     -  10 steepest descent iterations performed
    1380   -0.3398597281E+03   -0.16583E-05    0.78895E-06
     -  10 steepest descent iterations performed
    1390   -0.3398597367E+03   -0.62927E-06    0.33982E-06
    1400   -0.3398597669E+03   -0.20805E-05    0.19038E-04
     -  10 steepest descent iterations performed
    1410   -0.3398598010E+03   -0.17038E-05    0.33157E-06
    1420   -0.3398598084E+03   -0.86922E-06    0.23149E-06
    1430   -0.3398598245E+03   -0.24943E-05    0.38936E-05
     -  10 steepest descent iterations performed
    1440   -0.3398598450E+03   -0.58886E-06    0.26063E-06
    1450   -0.3398598599E+03   -0.14202E-05    0.22303E-05
     -  10 steepest descent iterations performed
    1460   -0.3398598791E+03   -0.20116E-05    0.71235E-06
     -  10 steepest descent iterations performed
    1470   -0.3398598929E+03   -0.12983E-05    0.90720E-06
    1480   -0.3398599745E+03   -0.94059E-05    0.92612E-04
     -  10 steepest descent iterations performed
    1490   -0.3398600767E+03   -0.34897E-05    0.44177E-06
    1500   -0.3398600942E+03   -0.17412E-05    0.48781E-06
    1510   -0.3398601194E+03   -0.35118E-05    0.33784E-05
     -  10 steepest descent iterations performed
    1520   -0.3398601550E+03   -0.24369E-05    0.96657E-06
    1530   -0.3398601799E+03   -0.26839E-05    0.27678E-05
     -  10 steepest descent iterations performed
    1540   -0.3398602175E+03   -0.31801E-05    0.11172E-05
     -  10 steepest descent iterations performed
    1550   -0.3398602448E+03   -0.30126E-05    0.15266E-05
    1560   -0.3398604677E+03   -0.26038E-04    0.28894E-03
     -  10 steepest descent iterations performed
    1570   -0.3398607823E+03   -0.52236E-05    0.87452E-06
    1580   -0.3398608280E+03   -0.43335E-05    0.12759E-05
    1590   -0.3398609033E+03   -0.89737E-05    0.88205E-05
     -  10 steepest descent iterations performed
    1600   -0.3398610106E+03   -0.55835E-05    0.23567E-05
    1610   -0.3398610780E+03   -0.87003E-05    0.60747E-05
     -  10 steepest descent iterations performed
    1620   -0.3398611805E+03   -0.83246E-05    0.24545E-05
    1630   -0.3398612604E+03   -0.62341E-05    0.66111E-05
    1640   -0.3398622581E+03   -0.10467E-03    0.98331E-03
     -  10 steepest descent iterations performed
    1650   -0.3398628437E+03   -0.11676E-04    0.50182E-05
    1660   -0.3398629564E+03   -0.59084E-05    0.33078E-05
    1670   -0.3398630199E+03   -0.85144E-05    0.29913E-05
     -  10 steepest descent iterations performed
    1680   -0.3398631090E+03   -0.77541E-05    0.24759E-05
    1690   -0.3398631981E+03   -0.78713E-05    0.96457E-05
     -  10 steepest descent iterations performed
    1700   -0.3398633069E+03   -0.68350E-05    0.21849E-05
    1710   -0.3398633475E+03   -0.34044E-05    0.17066E-05
    1720   -0.3398635873E+03   -0.21888E-04    0.12630E-03
     -  10 steepest descent iterations performed
    1730   -0.3398637718E+03   -0.32628E-05    0.87213E-06
    1740   -0.3398638041E+03   -0.29584E-05    0.11085E-05
    1750   -0.3398638333E+03   -0.34636E-05    0.27660E-05
     -  10 steepest descent iterations performed
    1760   -0.3398638749E+03   -0.25668E-05    0.14442E-05
    1770   -0.3398639053E+03   -0.28973E-05    0.36522E-05
     -  10 steepest descent iterations performed
    1780   -0.3398639473E+03   -0.30714E-05    0.14460E-05
     -  10 steepest descent iterations performed
    1790   -0.3398639759E+03   -0.33206E-05    0.24091E-05
     -  10 steepest descent iterations performed
    1800   -0.3398640019E+03   -0.19503E-05    0.94958E-06
    1810   -0.3398640506E+03   -0.35648E-05    0.17861E-04
     -  10 steepest descent iterations performed
    1820   -0.3398641032E+03   -0.13860E-05    0.82973E-06
    1830   -0.3398641157E+03   -0.15200E-05    0.10699E-05
     -  10 steepest descent iterations performed
    1840   -0.3398641371E+03   -0.20026E-05    0.12881E-05
     -  10 steepest descent iterations performed
    1850   -0.3398641566E+03   -0.18246E-05    0.13708E-05
    1860   -0.3398642131E+03   -0.58459E-05    0.37837E-04
     -  10 steepest descent iterations performed
    1870   -0.3398642722E+03   -0.14183E-05    0.66571E-06
    1880   -0.3398642807E+03   -0.97320E-06    0.57194E-06
    1890   -0.3398643967E+03   -0.24160E-04    0.23675E-03
     -  10 steepest descent iterations performed
    1900   -0.3398645027E+03   -0.96808E-06    0.63620E-06
    1910   -0.3398645140E+03   -0.10455E-05    0.98765E-06
     -  10 steepest descent iterations performed
    1920   -0.3398645316E+03   -0.26512E-05    0.28526E-05
     -  10 steepest descent iterations performed
    1930   -0.3398645482E+03   -0.82486E-06    0.10205E-05
    1940   -0.3398645795E+03   -0.42282E-05    0.20821E-04
     -  10 steepest descent iterations performed
    1950   -0.3398646178E+03   -0.19455E-05    0.72596E-06
    1960   -0.3398646278E+03   -0.12809E-05    0.12449E-05
    1970   -0.3398647562E+03   -0.20045E-04    0.39143E-03
     -  10 steepest descent iterations performed
    1980   -0.3398648989E+03   -0.15185E-05    0.10927E-05
    1990   -0.3398649143E+03   -0.10863E-05    0.12042E-05
    2000   -0.3398649365E+03   -0.25223E-05    0.79572E-05
     -  10 steepest descent iterations performed
    2010   -0.3398649677E+03   -0.21042E-05    0.14951E-05
    2020   -0.3398649866E+03   -0.34749E-05    0.51554E-05
     -  10 steepest descent iterations performed
    2030   -0.3398650152E+03   -0.17581E-05    0.19423E-05
    2040   -0.3398650351E+03   -0.19330E-05    0.57791E-05
     -  10 steepest descent iterations performed
    2050   -0.3398650672E+03   -0.28129E-05    0.21026E-05
     -  10 steepest descent iterations performed
    2060   -0.3398650956E+03   -0.25892E-05    0.82148E-05
    2070   -0.3398651710E+03   -0.77693E-05    0.11062E-03
     -  10 steepest descent iterations performed
    2080   -0.3398652658E+03   -0.39591E-05    0.15195E-05
    2090   -0.3398652774E+03   -0.10463E-05    0.75730E-06
    2100   -0.3398654765E+03   -0.18125E-04    0.78937E-03
     -  10 steepest descent iterations performed
    2110   -0.3398656685E+03   -0.24292E-05    0.13913E-05
    2120   -0.3398656848E+03   -0.21767E-05    0.90066E-06
    2130   -0.3398657104E+03   -0.30694E-05    0.87631E-05
     -  10 steepest descent iterations performed
    2140   -0.3398657436E+03   -0.13920E-05    0.15940E-05
    2150   -0.3398657750E+03   -0.33364E-05    0.14860E-04
     -  10 steepest descent iterations performed
    2160   -0.3398658140E+03   -0.23700E-05    0.17737E-05
    2170   -0.3398658322E+03   -0.25682E-05    0.37880E-05
     -  10 steepest descent iterations performed
    2180   -0.3398658632E+03   -0.23920E-05    0.31019E-05
    2190   -0.3398658880E+03   -0.21907E-05    0.93278E-05
    2200   -0.3398663878E+03   -0.28805E-04    0.41958E-02
     -  10 steepest descent iterations performed
    2210   -0.3398666690E+03   -0.63707E-05    0.45927E-05
    2220   -0.3398667075E+03   -0.27296E-05    0.12561E-05
    2230   -0.3398667364E+03   -0.28324E-05    0.30713E-05
     -  10 steepest descent iterations performed
    2240   -0.3398667652E+03   -0.20964E-05    0.19847E-05
    2250   -0.3398667928E+03   -0.38111E-05    0.92053E-05
     -  10 steepest descent iterations performed
    2260   -0.3398668236E+03   -0.18130E-05    0.14921E-05
    2270   -0.3398668375E+03   -0.11424E-05    0.22061E-05
    2280   -0.3398669327E+03   -0.17734E-04    0.21593E-03
     -  10 steepest descent iterations performed
    2290   -0.3398670138E+03   -0.18107E-05    0.15732E-05
    2300   -0.3398670280E+03   -0.11835E-05    0.11149E-05
    2310   -0.3398670411E+03   -0.16122E-05    0.33882E-05
     -  10 steepest descent iterations performed
    2320   -0.3398670596E+03   -0.13646E-05    0.15720E-05
    2330   -0.3398670740E+03   -0.17995E-05    0.44107E-05
     -  10 steepest descent iterations performed
    2340   -0.3398670942E+03   -0.14320E-05    0.16543E-05
    2350   -0.3398671045E+03   -0.92507E-06    0.22177E-05
    2360   -0.3398671862E+03   -0.77691E-05    0.25133E-03
     -  10 steepest descent iterations performed
    2370   -0.3398672595E+03   -0.13774E-05    0.10819E-05
    2380   -0.3398672698E+03   -0.97860E-06    0.72153E-06
    2390   -0.3398672785E+03   -0.77773E-06    0.19628E-05
    2400   -0.3398673153E+03   -0.66199E-05    0.67117E-04
     -  10 steepest descent iterations performed
    2410   -0.3398673522E+03   -0.10063E-05    0.79581E-06
    2420   -0.3398673616E+03   -0.66298E-06    0.96421E-06
    2430   -0.3398673715E+03   -0.12618E-05    0.37118E-05
     -  10 steepest descent iterations performed
    2440   -0.3398673845E+03   -0.10230E-05    0.97195E-06
    2450   -0.3398673947E+03   -0.96141E-06    0.33087E-05
    2460   -0.3398674184E+03   -0.30523E-05    0.31119E-04
     -  10 steepest descent iterations performed
    2470   -0.3398674460E+03   -0.10237E-05    0.70902E-06
    2480   -0.3398674556E+03   -0.73400E-06    0.11784E-05
    2490   -0.3398674637E+03   -0.82228E-06    0.27444E-05
     -  10 steepest descent iterations performed
    2500   -0.3398674761E+03   -0.96301E-06    0.10364E-05
     -  10 steepest descent iterations performed
    2510   -0.3398674838E+03   -0.55589E-06    0.10758E-05
    2520   -0.3398675420E+03   -0.95409E-05    0.21544E-03
     -  10 steepest descent iterations performed
    2530   -0.3398676006E+03   -0.13026E-05    0.38467E-06
    2540   -0.3398676061E+03   -0.72819E-06    0.55097E-06
    2550   -0.3398676265E+03   -0.70779E-06    0.18973E-04
    2560   -0.3398677060E+03   -0.11985E-04    0.40887E-03
     -  10 steepest descent iterations performed
    2570   -0.3398677902E+03   -0.27891E-05    0.14305E-05
    2580   -0.3398678121E+03   -0.16869E-05    0.14618E-05
    2590   -0.3398678194E+03   -0.95246E-06    0.91385E-06
    2600   -0.3398678360E+03   -0.25059E-05    0.12438E-04
     -  10 steepest descent iterations performed
    2610   -0.3398678561E+03   -0.69208E-06    0.59289E-06
    2620   -0.3398678695E+03   -0.15327E-05    0.49157E-05
     -  10 steepest descent iterations performed
    2630   -0.3398678829E+03   -0.11813E-05    0.10187E-05
    2640   -0.3398679009E+03   -0.23234E-05    0.12202E-04
     -  10 steepest descent iterations performed
    2650   -0.3398679202E+03   -0.83993E-06    0.66370E-06
    2660   -0.3398679320E+03   -0.12203E-05    0.38261E-05
     -  10 steepest descent iterations performed
    2670   -0.3398679459E+03   -0.13244E-05    0.10396E-05
     -  10 steepest descent iterations performed
    2680   -0.3398679574E+03   -0.78159E-06    0.21948E-05
    2690   -0.3398680157E+03   -0.98078E-05    0.16308E-03
     -  10 steepest descent iterations performed
    2700   -0.3398680805E+03   -0.13917E-05    0.42786E-06
    2710   -0.3398680877E+03   -0.82653E-06    0.73296E-06
    2720   -0.3398681309E+03   -0.27266E-05    0.65322E-04
     -  10 steepest descent iterations performed
    2730   -0.3398681728E+03   -0.14075E-05    0.15600E-05
    2740   -0.3398681863E+03   -0.14230E-05    0.18174E-05
     -  10 steepest descent iterations performed
    2750   -0.3398682005E+03   -0.13672E-05    0.20877E-05
    2760   -0.3398682289E+03   -0.21944E-05    0.25191E-04
     -  10 steepest descent iterations performed
    2770   -0.3398682612E+03   -0.14500E-05    0.11091E-05
    2780   -0.3398682707E+03   -0.11194E-05    0.13378E-05
    2790   -0.3398683082E+03   -0.30856E-05    0.41069E-04
     -  10 steepest descent iterations performed
    2800   -0.3398683467E+03   -0.19322E-05    0.15583E-05
    2810   -0.3398683615E+03   -0.14531E-05    0.19302E-05
    2820   -0.3398683755E+03   -0.13674E-05    0.44231E-05
    2830   -0.3398684987E+03   -0.12664E-04    0.52082E-03
     -  10 steepest descent iterations performed
    2840   -0.3398686207E+03   -0.34821E-05    0.13027E-05
    2850   -0.3398686382E+03   -0.14215E-05    0.72399E-06
    2860   -0.3398686566E+03   -0.21143E-05    0.37111E-05
     -  10 steepest descent iterations performed
    2870   -0.3398686741E+03   -0.14950E-05    0.17145E-05
    2880   -0.3398686997E+03   -0.20780E-05    0.14145E-04
     -  10 steepest descent iterations performed
    2890   -0.3398687272E+03   -0.19022E-05    0.12177E-05
    2900   -0.3398687396E+03   -0.13007E-05    0.19316E-05
    2910   -0.3398687709E+03   -0.45568E-05    0.25057E-04
     -  10 steepest descent iterations performed
    2920   -0.3398688040E+03   -0.18346E-05    0.86881E-06
    2930   -0.3398688209E+03   -0.15991E-05    0.26851E-05
    2940   -0.3398688339E+03   -0.10965E-05    0.36470E-05
    2950   -0.3398689322E+03   -0.98434E-05    0.30858E-03
     -  10 steepest descent iterations performed
    2960   -0.3398690078E+03   -0.17422E-05    0.75364E-06
    2970   -0.3398690229E+03   -0.82401E-06    0.54842E-06
    2980   -0.3398690313E+03   -0.86640E-06    0.96481E-06
     -  10 steepest descent iterations performed
    2990   -0.3398690407E+03   -0.77572E-06    0.11092E-05
    3000   -0.3398690555E+03   -0.18435E-05    0.83756E-05
 *** arived at the Maximum iiteration.   terminated.
     >>>  ITERATION ENDED   AT Wed Apr  3 05:02:12 2013  <<<


          =============  summary of results  =================

 number of electrons: spin up=   49.00000  down=   47.00000 (real space)

 total     energy    :  -0.3398690555E+03 (   -0.42484E+02/ion)
 total orbital energy:  -0.1510927637E+02 (   -0.15739E+00/electron)
 hartree   energy    :   0.1128677322E+04 (    0.11757E+02/electron)
 exc-corr  energy    :  -0.4631430014E+02 (   -0.48244E+00/electron)
 ion-ion   energy    :   0.7899279795E+03 (    0.98741E+02/ion)

 K.S. kinetic energy :   0.1656229497E+03 (    0.17252E+01/electron)
 K.S. V_l  energy    :  -0.2896493213E+03 (   -0.30172E+01/electron)
 K.S. V_nl energy    :  -0.5143552613E+02 (   -0.53579E+00/electron)
 K.S. V_Hart energy  :   0.2257354644E+04 (    0.23514E+02/electron)
 K.S. V_xc energy    :  -0.6030386372E+02 (   -0.62817E+00/electron)
 K.S. V_so energy    :   0.0000000000E+00 (    0.00000E+00/electron)
 Virial Coefficient  :   0.1120597077E+02

 Brillouin zone point:      1
    weight=  0.125000
    k     =<   0.375   0.375   0.000> . <b1,b2,b3> 
          =<   0.362   0.362  -0.000>

 orbital energies:
     0.3685970E+00 (  10.030eV) occ=1.000
     0.3597957E+00 (   9.791eV) occ=1.000
     0.3539098E+00 (   9.630eV) occ=1.000     0.3594337E+00 (   9.781eV) occ=1.000
     0.3506208E+00 (   9.541eV) occ=1.000     0.3573614E+00 (   9.724eV) occ=1.000
     0.3475533E+00 (   9.457eV) occ=1.000     0.3480114E+00 (   9.470eV) occ=1.000
     0.3415702E+00 (   9.295eV) occ=1.000     0.3437521E+00 (   9.354eV) occ=1.000
     0.3368323E+00 (   9.166eV) occ=1.000     0.3396050E+00 (   9.241eV) occ=1.000
     0.3340671E+00 (   9.091eV) occ=1.000     0.3359535E+00 (   9.142eV) occ=1.000
     0.3296551E+00 (   8.970eV) occ=1.000     0.3327923E+00 (   9.056eV) occ=1.000
     0.3259669E+00 (   8.870eV) occ=1.000     0.3262559E+00 (   8.878eV) occ=1.000
     0.3192640E+00 (   8.688eV) occ=1.000     0.3230358E+00 (   8.790eV) occ=1.000
     0.3163403E+00 (   8.608eV) occ=1.000     0.3180574E+00 (   8.655eV) occ=1.000
     0.3140357E+00 (   8.545eV) occ=1.000     0.3070901E+00 (   8.356eV) occ=1.000
     0.3092830E+00 (   8.416eV) occ=1.000     0.3032542E+00 (   8.252eV) occ=1.000
     0.3037376E+00 (   8.265eV) occ=1.000     0.2997678E+00 (   8.157eV) occ=1.000
     0.2911390E+00 (   7.922eV) occ=1.000     0.2934399E+00 (   7.985eV) occ=1.000
     0.2814922E+00 (   7.660eV) occ=1.000     0.2831093E+00 (   7.704eV) occ=1.000
     0.2707854E+00 (   7.369eV) occ=1.000     0.2739099E+00 (   7.454eV) occ=1.000
     0.2586246E+00 (   7.038eV) occ=1.000     0.2598183E+00 (   7.070eV) occ=1.000
     0.2540885E+00 (   6.914eV) occ=1.000     0.2537620E+00 (   6.905eV) occ=1.000
     0.1437247E+00 (   3.911eV) occ=1.000     0.1434895E+00 (   3.905eV) occ=1.000
     0.1183913E+00 (   3.222eV) occ=1.000     0.1176867E+00 (   3.202eV) occ=1.000
     0.9006275E-01 (   2.451eV) occ=1.000     0.8856346E-01 (   2.410eV) occ=1.000
    -0.1646532E+00 (  -4.480eV) occ=1.000    -0.1798527E+00 (  -4.894eV) occ=1.000
    -0.2092179E+00 (  -5.693eV) occ=1.000    -0.2116745E+00 (  -5.760eV) occ=1.000
    -0.2240020E+00 (  -6.095eV) occ=1.000    -0.2177416E+00 (  -5.925eV) occ=1.000
    -0.2252823E+00 (  -6.130eV) occ=1.000    -0.2361818E+00 (  -6.427eV) occ=1.000
    -0.2441764E+00 (  -6.644eV) occ=1.000    -0.2443164E+00 (  -6.648eV) occ=1.000
    -0.2733954E+00 (  -7.440eV) occ=1.000    -0.2566249E+00 (  -6.983eV) occ=1.000
    -0.2910100E+00 (  -7.919eV) occ=1.000    -0.2684086E+00 (  -7.304eV) occ=1.000
    -0.2985694E+00 (  -8.125eV) occ=1.000    -0.2784289E+00 (  -7.576eV) occ=1.000
    -0.3044767E+00 (  -8.285eV) occ=1.000    -0.2914968E+00 (  -7.932eV) occ=1.000
    -0.3157841E+00 (  -8.593eV) occ=1.000    -0.2985705E+00 (  -8.125eV) occ=1.000
    -0.3355118E+00 (  -9.130eV) occ=1.000    -0.3300674E+00 (  -8.982eV) occ=1.000
    -0.3537226E+00 (  -9.625eV) occ=1.000    -0.3491040E+00 (  -9.500eV) occ=1.000
    -0.3698420E+00 ( -10.064eV) occ=1.000    -0.3545369E+00 (  -9.648eV) occ=1.000
    -0.3902415E+00 ( -10.619eV) occ=1.000    -0.3656267E+00 (  -9.949eV) occ=1.000
    -0.3979699E+00 ( -10.829eV) occ=1.000    -0.3754675E+00 ( -10.217eV) occ=1.000
    -0.4125892E+00 ( -11.227eV) occ=1.000    -0.4213631E+00 ( -11.466eV) occ=1.000
    -0.4289914E+00 ( -11.674eV) occ=1.000    -0.4311143E+00 ( -11.731eV) occ=1.000
    -0.4312632E+00 ( -11.735eV) occ=1.000    -0.4428131E+00 ( -12.050eV) occ=1.000
    -0.4391739E+00 ( -11.951eV) occ=1.000    -0.4612149E+00 ( -12.550eV) occ=1.000
    -0.5361547E+00 ( -14.590eV) occ=1.000    -0.5374061E+00 ( -14.624eV) occ=1.000
    -0.1169501E+01 ( -31.824eV) occ=1.000    -0.1157091E+01 ( -31.486eV) occ=1.000
    -0.1176380E+01 ( -32.011eV) occ=1.000    -0.1161268E+01 ( -31.600eV) occ=1.000
    -0.1192499E+01 ( -32.450eV) occ=1.000    -0.1168025E+01 ( -31.784eV) occ=1.000
    -0.1229629E+01 ( -33.460eV) occ=1.000    -0.1227186E+01 ( -33.394eV) occ=1.000
    -0.1233441E+01 ( -33.564eV) occ=1.000    -0.1234809E+01 ( -33.601eV) occ=1.000
    -0.1238906E+01 ( -33.713eV) occ=1.000    -0.1246255E+01 ( -33.913eV) occ=1.000

 Brillouin zone point:      2
    weight=  0.125000
    k     =<   0.125   0.375   0.000> . <b1,b2,b3> 
          =<   0.121   0.362  -0.000>

 orbital energies:
     0.3500775E+00 (   9.526eV) occ=1.000
     0.3456057E+00 (   9.404eV) occ=1.000
     0.3403923E+00 (   9.263eV) occ=1.000     0.3530192E+00 (   9.606eV) occ=1.000
     0.3372368E+00 (   9.177eV) occ=1.000     0.3418497E+00 (   9.302eV) occ=1.000
     0.3346219E+00 (   9.106eV) occ=1.000     0.3410752E+00 (   9.281eV) occ=1.000
     0.3322309E+00 (   9.041eV) occ=1.000     0.3334745E+00 (   9.074eV) occ=1.000
     0.3293238E+00 (   8.961eV) occ=1.000     0.3304894E+00 (   8.993eV) occ=1.000
     0.3239038E+00 (   8.814eV) occ=1.000     0.3279007E+00 (   8.923eV) occ=1.000
     0.3213755E+00 (   8.745eV) occ=1.000     0.3211100E+00 (   8.738eV) occ=1.000
     0.3134285E+00 (   8.529eV) occ=1.000     0.3179159E+00 (   8.651eV) occ=1.000
     0.3080957E+00 (   8.384eV) occ=1.000     0.3109399E+00 (   8.461eV) occ=1.000
     0.3062016E+00 (   8.332eV) occ=1.000     0.3039915E+00 (   8.272eV) occ=1.000
     0.2993891E+00 (   8.147eV) occ=1.000     0.2960143E+00 (   8.055eV) occ=1.000
     0.2926465E+00 (   7.963eV) occ=1.000     0.2889574E+00 (   7.863eV) occ=1.000
     0.2863619E+00 (   7.792eV) occ=1.000     0.2873408E+00 (   7.819eV) occ=1.000
     0.2741206E+00 (   7.459eV) occ=1.000     0.2764097E+00 (   7.522eV) occ=1.000
     0.2585938E+00 (   7.037eV) occ=1.000     0.2682793E+00 (   7.300eV) occ=1.000
     0.2541353E+00 (   6.915eV) occ=1.000     0.2583937E+00 (   7.031eV) occ=1.000
     0.2492374E+00 (   6.782eV) occ=1.000     0.2499710E+00 (   6.802eV) occ=1.000
     0.2332185E+00 (   6.346eV) occ=1.000     0.2242635E+00 (   6.103eV) occ=1.000
     0.1339712E+00 (   3.646eV) occ=1.000     0.1321838E+00 (   3.597eV) occ=1.000
     0.1078482E+00 (   2.935eV) occ=1.000     0.1072297E+00 (   2.918eV) occ=1.000
     0.4959622E-01 (   1.350eV) occ=1.000     0.4751280E-01 (   1.293eV) occ=1.000
    -0.1769954E+00 (  -4.816eV) occ=1.000    -0.1855055E+00 (  -5.048eV) occ=1.000
    -0.2147350E+00 (  -5.843eV) occ=1.000    -0.2188719E+00 (  -5.956eV) occ=1.000
    -0.2256702E+00 (  -6.141eV) occ=1.000    -0.2238210E+00 (  -6.091eV) occ=1.000
    -0.2398939E+00 (  -6.528eV) occ=1.000    -0.2302768E+00 (  -6.266eV) occ=1.000
    -0.2482005E+00 (  -6.754eV) occ=1.000    -0.2414833E+00 (  -6.571eV) occ=1.000
    -0.2628569E+00 (  -7.153eV) occ=1.000    -0.2450971E+00 (  -6.669eV) occ=1.000
    -0.2706669E+00 (  -7.365eV) occ=1.000    -0.2670215E+00 (  -7.266eV) occ=1.000
    -0.2825153E+00 (  -7.688eV) occ=1.000    -0.2778243E+00 (  -7.560eV) occ=1.000
    -0.2956597E+00 (  -8.045eV) occ=1.000    -0.2788967E+00 (  -7.589eV) occ=1.000
    -0.3028410E+00 (  -8.241eV) occ=1.000    -0.2895656E+00 (  -7.880eV) occ=1.000
    -0.3277678E+00 (  -8.919eV) occ=1.000    -0.3039584E+00 (  -8.271eV) occ=1.000
    -0.3329818E+00 (  -9.061eV) occ=1.000    -0.3266536E+00 (  -8.889eV) occ=1.000
    -0.3521372E+00 (  -9.582eV) occ=1.000    -0.3420282E+00 (  -9.307eV) occ=1.000
    -0.3646772E+00 (  -9.923eV) occ=1.000    -0.3565296E+00 (  -9.702eV) occ=1.000
    -0.3826547E+00 ( -10.413eV) occ=1.000    -0.3753846E+00 ( -10.215eV) occ=1.000
    -0.3952045E+00 ( -10.754eV) occ=1.000    -0.3895777E+00 ( -10.601eV) occ=1.000
    -0.4005383E+00 ( -10.899eV) occ=1.000    -0.4111846E+00 ( -11.189eV) occ=1.000
    -0.4121853E+00 ( -11.216eV) occ=1.000    -0.4146640E+00 ( -11.284eV) occ=1.000
    -0.4222277E+00 ( -11.489eV) occ=1.000    -0.4356152E+00 ( -11.854eV) occ=1.000
    -0.5445957E+00 ( -14.819eV) occ=1.000    -0.5459737E+00 ( -14.857eV) occ=1.000
    -0.1168076E+01 ( -31.785eV) occ=1.000    -0.1156484E+01 ( -31.470eV) occ=1.000
    -0.1177297E+01 ( -32.036eV) occ=1.000    -0.1166320E+01 ( -31.737eV) occ=1.000
    -0.1199322E+01 ( -32.635eV) occ=1.000    -0.1169000E+01 ( -31.810eV) occ=1.000
    -0.1229123E+01 ( -33.446eV) occ=1.000    -0.1231363E+01 ( -33.507eV) occ=1.000
    -0.1238072E+01 ( -33.690eV) occ=1.000    -0.1231432E+01 ( -33.509eV) occ=1.000
    -0.1243114E+01 ( -33.827eV) occ=1.000    -0.1254687E+01 ( -34.142eV) occ=1.000

 Brillouin zone point:      3
    weight=  0.125000
    k     =<  -0.125   0.375   0.000> . <b1,b2,b3> 
          =<  -0.121   0.362  -0.000>

 orbital energies:
     0.3496899E+00 (   9.516eV) occ=1.000
     0.3449412E+00 (   9.386eV) occ=1.000
     0.3406950E+00 (   9.271eV) occ=1.000     0.3528297E+00 (   9.601eV) occ=1.000
     0.3386322E+00 (   9.215eV) occ=1.000     0.3425104E+00 (   9.320eV) occ=1.000
     0.3343203E+00 (   9.097eV) occ=1.000     0.3387355E+00 (   9.218eV) occ=1.000
     0.3311688E+00 (   9.012eV) occ=1.000     0.3362708E+00 (   9.150eV) occ=1.000
     0.3307761E+00 (   9.001eV) occ=1.000     0.3300685E+00 (   8.982eV) occ=1.000
     0.3241524E+00 (   8.821eV) occ=1.000     0.3268153E+00 (   8.893eV) occ=1.000
     0.3206255E+00 (   8.725eV) occ=1.000     0.3214762E+00 (   8.748eV) occ=1.000
     0.3144341E+00 (   8.556eV) occ=1.000     0.3180260E+00 (   8.654eV) occ=1.000
     0.3066050E+00 (   8.343eV) occ=1.000     0.3107078E+00 (   8.455eV) occ=1.000
     0.3046799E+00 (   8.291eV) occ=1.000     0.3038341E+00 (   8.268eV) occ=1.000
     0.3017283E+00 (   8.211eV) occ=1.000     0.2966428E+00 (   8.072eV) occ=1.000
     0.2923780E+00 (   7.956eV) occ=1.000     0.2928197E+00 (   7.968eV) occ=1.000
     0.2850406E+00 (   7.756eV) occ=1.000     0.2846962E+00 (   7.747eV) occ=1.000
     0.2766670E+00 (   7.529eV) occ=1.000     0.2748597E+00 (   7.479eV) occ=1.000
     0.2589717E+00 (   7.047eV) occ=1.000     0.2685803E+00 (   7.309eV) occ=1.000
     0.2534684E+00 (   6.897eV) occ=1.000     0.2586615E+00 (   7.039eV) occ=1.000
     0.2496961E+00 (   6.795eV) occ=1.000     0.2517991E+00 (   6.852eV) occ=1.000
     0.2323517E+00 (   6.323eV) occ=1.000     0.2237044E+00 (   6.087eV) occ=1.000
     0.1334050E+00 (   3.630eV) occ=1.000     0.1314293E+00 (   3.576eV) occ=1.000
     0.1077022E+00 (   2.931eV) occ=1.000     0.1072396E+00 (   2.918eV) occ=1.000
     0.4930456E-01 (   1.342eV) occ=1.000     0.4731419E-01 (   1.287eV) occ=1.000
    -0.1739176E+00 (  -4.733eV) occ=1.000    -0.1841313E+00 (  -5.011eV) occ=1.000
    -0.2184824E+00 (  -5.945eV) occ=1.000    -0.2196340E+00 (  -5.977eV) occ=1.000
    -0.2258641E+00 (  -6.146eV) occ=1.000    -0.2234262E+00 (  -6.080eV) occ=1.000
    -0.2398274E+00 (  -6.526eV) occ=1.000    -0.2301560E+00 (  -6.263eV) occ=1.000
    -0.2454227E+00 (  -6.678eV) occ=1.000    -0.2408819E+00 (  -6.555eV) occ=1.000
    -0.2632363E+00 (  -7.163eV) occ=1.000    -0.2471437E+00 (  -6.725eV) occ=1.000
    -0.2711112E+00 (  -7.377eV) occ=1.000    -0.2678280E+00 (  -7.288eV) occ=1.000
    -0.2822835E+00 (  -7.681eV) occ=1.000    -0.2760808E+00 (  -7.513eV) occ=1.000
    -0.2958164E+00 (  -8.050eV) occ=1.000    -0.2781387E+00 (  -7.569eV) occ=1.000
    -0.3036590E+00 (  -8.263eV) occ=1.000    -0.2892591E+00 (  -7.871eV) occ=1.000
    -0.3280942E+00 (  -8.928eV) occ=1.000    -0.3050678E+00 (  -8.301eV) occ=1.000
    -0.3336699E+00 (  -9.080eV) occ=1.000    -0.3267352E+00 (  -8.891eV) occ=1.000
    -0.3519601E+00 (  -9.577eV) occ=1.000    -0.3424948E+00 (  -9.320eV) occ=1.000
    -0.3648439E+00 (  -9.928eV) occ=1.000    -0.3569573E+00 (  -9.713eV) occ=1.000
    -0.3820755E+00 ( -10.397eV) occ=1.000    -0.3748122E+00 ( -10.199eV) occ=1.000
    -0.3951435E+00 ( -10.752eV) occ=1.000    -0.3892156E+00 ( -10.591eV) occ=1.000
    -0.4002789E+00 ( -10.892eV) occ=1.000    -0.4117891E+00 ( -11.205eV) occ=1.000
    -0.4116828E+00 ( -11.203eV) occ=1.000    -0.4154414E+00 ( -11.305eV) occ=1.000
    -0.4224522E+00 ( -11.496eV) occ=1.000    -0.4343248E+00 ( -11.819eV) occ=1.000
    -0.5446890E+00 ( -14.822eV) occ=1.000    -0.5461114E+00 ( -14.861eV) occ=1.000
    -0.1168107E+01 ( -31.786eV) occ=1.000    -0.1156488E+01 ( -31.470eV) occ=1.000
    -0.1177290E+01 ( -32.036eV) occ=1.000    -0.1166316E+01 ( -31.737eV) occ=1.000
    -0.1199296E+01 ( -32.635eV) occ=1.000    -0.1168985E+01 ( -31.810eV) occ=1.000
    -0.1229121E+01 ( -33.446eV) occ=1.000    -0.1231377E+01 ( -33.508eV) occ=1.000
    -0.1238073E+01 ( -33.690eV) occ=1.000    -0.1231443E+01 ( -33.510eV) occ=1.000
    -0.1243119E+01 ( -33.827eV) occ=1.000    -0.1254675E+01 ( -34.142eV) occ=1.000

 Brillouin zone point:      4
    weight=  0.125000
    k     =<   0.375  -0.375   0.000> . <b1,b2,b3> 
          =<   0.362  -0.362  -0.000>

 orbital energies:
     0.3681680E+00 (  10.018eV) occ=1.000
     0.3583457E+00 (   9.751eV) occ=1.000
     0.3563072E+00 (   9.696eV) occ=1.000     0.3627130E+00 (   9.870eV) occ=1.000
     0.3505726E+00 (   9.540eV) occ=1.000     0.3550867E+00 (   9.662eV) occ=1.000
     0.3443986E+00 (   9.372eV) occ=1.000     0.3516138E+00 (   9.568eV) occ=1.000
     0.3411082E+00 (   9.282eV) occ=1.000     0.3395830E+00 (   9.241eV) occ=1.000
     0.3362054E+00 (   9.149eV) occ=1.000     0.3372386E+00 (   9.177eV) occ=1.000
     0.3343292E+00 (   9.098eV) occ=1.000     0.3322101E+00 (   9.040eV) occ=1.000
     0.3310146E+00 (   9.007eV) occ=1.000     0.3302210E+00 (   8.986eV) occ=1.000
     0.3249235E+00 (   8.842eV) occ=1.000     0.3255222E+00 (   8.858eV) occ=1.000
     0.3198511E+00 (   8.704eV) occ=1.000     0.3209033E+00 (   8.732eV) occ=1.000
     0.3159861E+00 (   8.598eV) occ=1.000     0.3203475E+00 (   8.717eV) occ=1.000
     0.3131015E+00 (   8.520eV) occ=1.000     0.3119224E+00 (   8.488eV) occ=1.000
     0.3103361E+00 (   8.445eV) occ=1.000     0.3058768E+00 (   8.323eV) occ=1.000
     0.3047043E+00 (   8.291eV) occ=1.000     0.3019947E+00 (   8.218eV) occ=1.000
     0.2909022E+00 (   7.916eV) occ=1.000     0.2932873E+00 (   7.981eV) occ=1.000
     0.2805214E+00 (   7.633eV) occ=1.000     0.2781662E+00 (   7.569eV) occ=1.000
     0.2655497E+00 (   7.226eV) occ=1.000     0.2742573E+00 (   7.463eV) occ=1.000
     0.2631832E+00 (   7.162eV) occ=1.000     0.2632419E+00 (   7.163eV) occ=1.000
     0.2511605E+00 (   6.834eV) occ=1.000     0.2495367E+00 (   6.790eV) occ=1.000
     0.1426952E+00 (   3.883eV) occ=1.000     0.1423051E+00 (   3.872eV) occ=1.000
     0.1174458E+00 (   3.196eV) occ=1.000     0.1168787E+00 (   3.180eV) occ=1.000
     0.9415527E-01 (   2.562eV) occ=1.000     0.9262595E-01 (   2.521eV) occ=1.000
    -0.1690320E+00 (  -4.600eV) occ=1.000    -0.1838494E+00 (  -5.003eV) occ=1.000
    -0.2094241E+00 (  -5.699eV) occ=1.000    -0.2119665E+00 (  -5.768eV) occ=1.000
    -0.2243971E+00 (  -6.106eV) occ=1.000    -0.2169850E+00 (  -5.905eV) occ=1.000
    -0.2254292E+00 (  -6.134eV) occ=1.000    -0.2375285E+00 (  -6.464eV) occ=1.000
    -0.2365330E+00 (  -6.436eV) occ=1.000    -0.2393091E+00 (  -6.512eV) occ=1.000
    -0.2744547E+00 (  -7.468eV) occ=1.000    -0.2598358E+00 (  -7.071eV) occ=1.000
    -0.2916783E+00 (  -7.937eV) occ=1.000    -0.2716119E+00 (  -7.391eV) occ=1.000
    -0.2984804E+00 (  -8.122eV) occ=1.000    -0.2741460E+00 (  -7.460eV) occ=1.000
    -0.3049121E+00 (  -8.297eV) occ=1.000    -0.2864741E+00 (  -7.795eV) occ=1.000
    -0.3145411E+00 (  -8.559eV) occ=1.000    -0.2987284E+00 (  -8.129eV) occ=1.000
    -0.3354476E+00 (  -9.128eV) occ=1.000    -0.3317304E+00 (  -9.027eV) occ=1.000
    -0.3575198E+00 (  -9.729eV) occ=1.000    -0.3497547E+00 (  -9.517eV) occ=1.000
    -0.3704083E+00 ( -10.079eV) occ=1.000    -0.3543677E+00 (  -9.643eV) occ=1.000
    -0.3886534E+00 ( -10.576eV) occ=1.000    -0.3666396E+00 (  -9.977eV) occ=1.000
    -0.3982583E+00 ( -10.837eV) occ=1.000    -0.3766309E+00 ( -10.249eV) occ=1.000
    -0.4194181E+00 ( -11.413eV) occ=1.000    -0.4202744E+00 ( -11.436eV) occ=1.000
    -0.4236474E+00 ( -11.528eV) occ=1.000    -0.4322921E+00 ( -11.763eV) occ=1.000
    -0.4284907E+00 ( -11.660eV) occ=1.000    -0.4489875E+00 ( -12.218eV) occ=1.000
    -0.4396204E+00 ( -11.963eV) occ=1.000    -0.4537269E+00 ( -12.347eV) occ=1.000
    -0.5364799E+00 ( -14.598eV) occ=1.000    -0.5379830E+00 ( -14.639eV) occ=1.000
    -0.1169544E+01 ( -31.825eV) occ=1.000    -0.1157101E+01 ( -31.487eV) occ=1.000
    -0.1176373E+01 ( -32.011eV) occ=1.000    -0.1161259E+01 ( -31.600eV) occ=1.000
    -0.1192462E+01 ( -32.449eV) occ=1.000    -0.1168008E+01 ( -31.783eV) occ=1.000
    -0.1229626E+01 ( -33.460eV) occ=1.000    -0.1227198E+01 ( -33.394eV) occ=1.000
    -0.1233443E+01 ( -33.564eV) occ=1.000    -0.1234837E+01 ( -33.602eV) occ=1.000
    -0.1238912E+01 ( -33.713eV) occ=1.000    -0.1246229E+01 ( -33.912eV) occ=1.000

 Brillouin zone point:      5
    weight=  0.125000
    k     =<   0.375   0.125   0.000> . <b1,b2,b3> 
          =<   0.362   0.121  -0.000>

 orbital energies:
     0.3501852E+00 (   9.529eV) occ=1.000
     0.3445382E+00 (   9.375eV) occ=1.000
     0.3399344E+00 (   9.250eV) occ=1.000     0.3510209E+00 (   9.552eV) occ=1.000
     0.3377487E+00 (   9.191eV) occ=1.000     0.3426056E+00 (   9.323eV) occ=1.000
     0.3346203E+00 (   9.106eV) occ=1.000     0.3397248E+00 (   9.244eV) occ=1.000
     0.3305294E+00 (   8.994eV) occ=1.000     0.3365113E+00 (   9.157eV) occ=1.000
     0.3282451E+00 (   8.932eV) occ=1.000     0.3294901E+00 (   8.966eV) occ=1.000
     0.3257341E+00 (   8.864eV) occ=1.000     0.3238980E+00 (   8.814eV) occ=1.000
     0.3202002E+00 (   8.713eV) occ=1.000     0.3180451E+00 (   8.655eV) occ=1.000
     0.3135441E+00 (   8.532eV) occ=1.000     0.3170056E+00 (   8.626eV) occ=1.000
     0.3073149E+00 (   8.363eV) occ=1.000     0.3104165E+00 (   8.447eV) occ=1.000
     0.3030956E+00 (   8.248eV) occ=1.000     0.3071477E+00 (   8.358eV) occ=1.000
     0.2972500E+00 (   8.089eV) occ=1.000     0.3012567E+00 (   8.198eV) occ=1.000
     0.2892216E+00 (   7.870eV) occ=1.000     0.2866455E+00 (   7.800eV) occ=1.000
     0.2812108E+00 (   7.652eV) occ=1.000     0.2816553E+00 (   7.664eV) occ=1.000
     0.2688386E+00 (   7.316eV) occ=1.000     0.2710957E+00 (   7.377eV) occ=1.000
     0.2624083E+00 (   7.141eV) occ=1.000     0.2670388E+00 (   7.267eV) occ=1.000
     0.2570141E+00 (   6.994eV) occ=1.000     0.2588571E+00 (   7.044eV) occ=1.000
     0.2500636E+00 (   6.805eV) occ=1.000     0.2500426E+00 (   6.804eV) occ=1.000
     0.2475139E+00 (   6.735eV) occ=1.000     0.2392857E+00 (   6.511eV) occ=1.000
     0.1472094E+00 (   4.006eV) occ=1.000     0.1479288E+00 (   4.025eV) occ=1.000
     0.1275610E+00 (   3.471eV) occ=1.000     0.1272960E+00 (   3.464eV) occ=1.000
     0.9335547E-01 (   2.540eV) occ=1.000     0.9153402E-01 (   2.491eV) occ=1.000
    -0.1682859E+00 (  -4.579eV) occ=1.000    -0.1825601E+00 (  -4.968eV) occ=1.000
    -0.2154654E+00 (  -5.863eV) occ=1.000    -0.2185372E+00 (  -5.947eV) occ=1.000
    -0.2263027E+00 (  -6.158eV) occ=1.000    -0.2251164E+00 (  -6.126eV) occ=1.000
    -0.2396195E+00 (  -6.520eV) occ=1.000    -0.2300563E+00 (  -6.260eV) occ=1.000
    -0.2462210E+00 (  -6.700eV) occ=1.000    -0.2426718E+00 (  -6.603eV) occ=1.000
    -0.2673852E+00 (  -7.276eV) occ=1.000    -0.2458744E+00 (  -6.691eV) occ=1.000
    -0.2781720E+00 (  -7.570eV) occ=1.000    -0.2658141E+00 (  -7.233eV) occ=1.000
    -0.2848206E+00 (  -7.750eV) occ=1.000    -0.2740764E+00 (  -7.458eV) occ=1.000
    -0.2961913E+00 (  -8.060eV) occ=1.000    -0.2838316E+00 (  -7.724eV) occ=1.000
    -0.3081969E+00 (  -8.387eV) occ=1.000    -0.2918851E+00 (  -7.943eV) occ=1.000
    -0.3284352E+00 (  -8.937eV) occ=1.000    -0.3159232E+00 (  -8.597eV) occ=1.000
    -0.3315889E+00 (  -9.023eV) occ=1.000    -0.3284284E+00 (  -8.937eV) occ=1.000
    -0.3507560E+00 (  -9.545eV) occ=1.000    -0.3396302E+00 (  -9.242eV) occ=1.000
    -0.3694054E+00 ( -10.052eV) occ=1.000    -0.3577151E+00 (  -9.734eV) occ=1.000
    -0.3853376E+00 ( -10.486eV) occ=1.000    -0.3791372E+00 ( -10.317eV) occ=1.000
    -0.3966567E+00 ( -10.794eV) occ=1.000    -0.3912180E+00 ( -10.646eV) occ=1.000
    -0.4028897E+00 ( -10.963eV) occ=1.000    -0.4124497E+00 ( -11.223eV) occ=1.000
    -0.4175547E+00 ( -11.362eV) occ=1.000    -0.4156421E+00 ( -11.310eV) occ=1.000
    -0.4227847E+00 ( -11.505eV) occ=1.000    -0.4402282E+00 ( -11.979eV) occ=1.000
    -0.5382139E+00 ( -14.646eV) occ=1.000    -0.5396067E+00 ( -14.684eV) occ=1.000
    -0.1167995E+01 ( -31.783eV) occ=1.000    -0.1156489E+01 ( -31.470eV) occ=1.000
    -0.1177303E+01 ( -32.036eV) occ=1.000    -0.1166317E+01 ( -31.737eV) occ=1.000
    -0.1199098E+01 ( -32.629eV) occ=1.000    -0.1168945E+01 ( -31.809eV) occ=1.000
    -0.1229124E+01 ( -33.446eV) occ=1.000    -0.1231272E+01 ( -33.505eV) occ=1.000
    -0.1238071E+01 ( -33.690eV) occ=1.000    -0.1231450E+01 ( -33.510eV) occ=1.000
    -0.1243093E+01 ( -33.827eV) occ=1.000    -0.1254563E+01 ( -34.139eV) occ=1.000

 Brillouin zone point:      6
    weight=  0.125000
    k     =<   0.125   0.125   0.000> . <b1,b2,b3> 
          =<   0.121   0.121  -0.000>

 orbital energies:
     0.3456565E+00 (   9.406eV) occ=1.000
     0.3426268E+00 (   9.323eV) occ=1.000
     0.3407202E+00 (   9.272eV) occ=1.000     0.3403535E+00 (   9.262eV) occ=1.000
     0.3380401E+00 (   9.199eV) occ=1.000     0.3398371E+00 (   9.248eV) occ=1.000
     0.3290165E+00 (   8.953eV) occ=1.000     0.3319574E+00 (   9.033eV) occ=1.000
     0.3255878E+00 (   8.860eV) occ=1.000     0.3234562E+00 (   8.802eV) occ=1.000
     0.3216590E+00 (   8.753eV) occ=1.000     0.3193885E+00 (   8.691eV) occ=1.000
     0.3166775E+00 (   8.617eV) occ=1.000     0.3162624E+00 (   8.606eV) occ=1.000
     0.3113660E+00 (   8.473eV) occ=1.000     0.3121807E+00 (   8.495eV) occ=1.000
     0.3074375E+00 (   8.366eV) occ=1.000     0.3081646E+00 (   8.386eV) occ=1.000
     0.3031802E+00 (   8.250eV) occ=1.000     0.3011607E+00 (   8.195eV) occ=1.000
     0.3003804E+00 (   8.174eV) occ=1.000     0.2928781E+00 (   7.970eV) occ=1.000
     0.2949082E+00 (   8.025eV) occ=1.000     0.2912124E+00 (   7.924eV) occ=1.000
     0.2903890E+00 (   7.902eV) occ=1.000     0.2827571E+00 (   7.694eV) occ=1.000
     0.2623251E+00 (   7.138eV) occ=1.000     0.2741641E+00 (   7.460eV) occ=1.000
     0.2517033E+00 (   6.849eV) occ=1.000     0.2641853E+00 (   7.189eV) occ=1.000
     0.2457468E+00 (   6.687eV) occ=1.000     0.2597036E+00 (   7.067eV) occ=1.000
     0.2386771E+00 (   6.495eV) occ=1.000     0.2403058E+00 (   6.539eV) occ=1.000
     0.2110430E+00 (   5.743eV) occ=1.000     0.2114337E+00 (   5.753eV) occ=1.000
     0.2075155E+00 (   5.647eV) occ=1.000     0.1955743E+00 (   5.322eV) occ=1.000
     0.1387105E+00 (   3.775eV) occ=1.000     0.1377484E+00 (   3.748eV) occ=1.000
     0.1192419E+00 (   3.245eV) occ=1.000     0.1179895E+00 (   3.211eV) occ=1.000
     0.4868949E-01 (   1.325eV) occ=1.000     0.4681736E-01 (   1.274eV) occ=1.000
    -0.1767905E+00 (  -4.811eV) occ=1.000    -0.1851367E+00 (  -5.038eV) occ=1.000
    -0.2116063E+00 (  -5.758eV) occ=1.000    -0.2061188E+00 (  -5.609eV) occ=1.000
    -0.2172970E+00 (  -5.913eV) occ=1.000    -0.2195933E+00 (  -5.975eV) occ=1.000
    -0.2285396E+00 (  -6.219eV) occ=1.000    -0.2265179E+00 (  -6.164eV) occ=1.000
    -0.2347904E+00 (  -6.389eV) occ=1.000    -0.2308237E+00 (  -6.281eV) occ=1.000
    -0.2520300E+00 (  -6.858eV) occ=1.000    -0.2404050E+00 (  -6.542eV) occ=1.000
    -0.2581780E+00 (  -7.025eV) occ=1.000    -0.2577039E+00 (  -7.013eV) occ=1.000
    -0.2823564E+00 (  -7.683eV) occ=1.000    -0.2640450E+00 (  -7.185eV) occ=1.000
    -0.2938890E+00 (  -7.997eV) occ=1.000    -0.2707501E+00 (  -7.368eV) occ=1.000
    -0.3052577E+00 (  -8.307eV) occ=1.000    -0.2921641E+00 (  -7.950eV) occ=1.000
    -0.3342414E+00 (  -9.095eV) occ=1.000    -0.3081469E+00 (  -8.385eV) occ=1.000
    -0.3425405E+00 (  -9.321eV) occ=1.000    -0.3196018E+00 (  -8.697eV) occ=1.000
    -0.3505209E+00 (  -9.538eV) occ=1.000    -0.3321552E+00 (  -9.038eV) occ=1.000
    -0.3565926E+00 (  -9.703eV) occ=1.000    -0.3530426E+00 (  -9.607eV) occ=1.000
    -0.3619367E+00 (  -9.849eV) occ=1.000    -0.3733499E+00 ( -10.159eV) occ=1.000
    -0.3794674E+00 ( -10.326eV) occ=1.000    -0.3813009E+00 ( -10.376eV) occ=1.000
    -0.3807910E+00 ( -10.362eV) occ=1.000    -0.3835001E+00 ( -10.436eV) occ=1.000
    -0.3922531E+00 ( -10.674eV) occ=1.000    -0.3993965E+00 ( -10.868eV) occ=1.000
    -0.3961336E+00 ( -10.779eV) occ=1.000    -0.4137089E+00 ( -11.258eV) occ=1.000
    -0.5455170E+00 ( -14.844eV) occ=1.000    -0.5466219E+00 ( -14.874eV) occ=1.000
    -0.1154905E+01 ( -31.427eV) occ=1.000    -0.1151183E+01 ( -31.326eV) occ=1.000
    -0.1169695E+01 ( -31.829eV) occ=1.000    -0.1161110E+01 ( -31.596eV) occ=1.000
    -0.1213490E+01 ( -33.021eV) occ=1.000    -0.1175208E+01 ( -31.979eV) occ=1.000
    -0.1225742E+01 ( -33.354eV) occ=1.000    -0.1217550E+01 ( -33.131eV) occ=1.000
    -0.1246301E+01 ( -33.914eV) occ=1.000    -0.1241686E+01 ( -33.788eV) occ=1.000
    -0.1253225E+01 ( -34.102eV) occ=1.000    -0.1271174E+01 ( -34.591eV) occ=1.000

 Brillouin zone point:      7
    weight=  0.125000
    k     =<   0.125  -0.125   0.000> . <b1,b2,b3> 
          =<   0.121  -0.121  -0.000>

 orbital energies:
     0.3481444E+00 (   9.474eV) occ=1.000
     0.3443617E+00 (   9.371eV) occ=1.000
     0.3377512E+00 (   9.191eV) occ=1.000     0.3447217E+00 (   9.380eV) occ=1.000
     0.3357083E+00 (   9.135eV) occ=1.000     0.3413745E+00 (   9.289eV) occ=1.000
     0.3300268E+00 (   8.981eV) occ=1.000     0.3338964E+00 (   9.086eV) occ=1.000
     0.3272199E+00 (   8.904eV) occ=1.000     0.3226951E+00 (   8.781eV) occ=1.000
     0.3211001E+00 (   8.738eV) occ=1.000     0.3192512E+00 (   8.687eV) occ=1.000
     0.3156604E+00 (   8.590eV) occ=1.000     0.3144309E+00 (   8.556eV) occ=1.000
     0.3115722E+00 (   8.478eV) occ=1.000     0.3117084E+00 (   8.482eV) occ=1.000
     0.3093215E+00 (   8.417eV) occ=1.000     0.3093498E+00 (   8.418eV) occ=1.000
     0.3028649E+00 (   8.241eV) occ=1.000     0.3026170E+00 (   8.235eV) occ=1.000
     0.2999895E+00 (   8.163eV) occ=1.000     0.2983481E+00 (   8.119eV) occ=1.000
     0.2930630E+00 (   7.975eV) occ=1.000     0.2906748E+00 (   7.910eV) occ=1.000
     0.2897115E+00 (   7.884eV) occ=1.000     0.2790534E+00 (   7.593eV) occ=1.000
     0.2639996E+00 (   7.184eV) occ=1.000     0.2722068E+00 (   7.407eV) occ=1.000
     0.2509768E+00 (   6.829eV) occ=1.000     0.2634984E+00 (   7.170eV) occ=1.000
     0.2462880E+00 (   6.702eV) occ=1.000     0.2610138E+00 (   7.103eV) occ=1.000
     0.2395087E+00 (   6.517eV) occ=1.000     0.2414719E+00 (   6.571eV) occ=1.000
     0.2098609E+00 (   5.711eV) occ=1.000     0.2111187E+00 (   5.745eV) occ=1.000
     0.2070307E+00 (   5.634eV) occ=1.000     0.1943957E+00 (   5.290eV) occ=1.000
     0.1373060E+00 (   3.736eV) occ=1.000     0.1362587E+00 (   3.708eV) occ=1.000
     0.1202099E+00 (   3.271eV) occ=1.000     0.1192925E+00 (   3.246eV) occ=1.000
     0.4900250E-01 (   1.333eV) occ=1.000     0.4718450E-01 (   1.284eV) occ=1.000
    -0.1742045E+00 (  -4.740eV) occ=1.000    -0.1844663E+00 (  -5.020eV) occ=1.000
    -0.2146652E+00 (  -5.841eV) occ=1.000    -0.2073311E+00 (  -5.642eV) occ=1.000
    -0.2178290E+00 (  -5.927eV) occ=1.000    -0.2190834E+00 (  -5.962eV) occ=1.000
    -0.2269540E+00 (  -6.176eV) occ=1.000    -0.2258827E+00 (  -6.147eV) occ=1.000
    -0.2349108E+00 (  -6.392eV) occ=1.000    -0.2310606E+00 (  -6.288eV) occ=1.000
    -0.2520007E+00 (  -6.857eV) occ=1.000    -0.2397286E+00 (  -6.523eV) occ=1.000
    -0.2582844E+00 (  -7.028eV) occ=1.000    -0.2562372E+00 (  -6.973eV) occ=1.000
    -0.2822584E+00 (  -7.681eV) occ=1.000    -0.2662483E+00 (  -7.245eV) occ=1.000
    -0.2940166E+00 (  -8.001eV) occ=1.000    -0.2714938E+00 (  -7.388eV) occ=1.000
    -0.3051558E+00 (  -8.304eV) occ=1.000    -0.2920328E+00 (  -7.947eV) occ=1.000
    -0.3348953E+00 (  -9.113eV) occ=1.000    -0.3077458E+00 (  -8.374eV) occ=1.000
    -0.3438977E+00 (  -9.358eV) occ=1.000    -0.3194521E+00 (  -8.693eV) occ=1.000
    -0.3501252E+00 (  -9.527eV) occ=1.000    -0.3320813E+00 (  -9.036eV) occ=1.000
    -0.3572537E+00 (  -9.721eV) occ=1.000    -0.3528512E+00 (  -9.602eV) occ=1.000
    -0.3618221E+00 (  -9.846eV) occ=1.000    -0.3739254E+00 ( -10.175eV) occ=1.000
    -0.3757090E+00 ( -10.224eV) occ=1.000    -0.3809402E+00 ( -10.366eV) occ=1.000
    -0.3820115E+00 ( -10.395eV) occ=1.000    -0.3846944E+00 ( -10.468eV) occ=1.000
    -0.3929173E+00 ( -10.692eV) occ=1.000    -0.3996766E+00 ( -10.876eV) occ=1.000
    -0.3959956E+00 ( -10.776eV) occ=1.000    -0.4123652E+00 ( -11.221eV) occ=1.000
    -0.5455890E+00 ( -14.846eV) occ=1.000    -0.5467196E+00 ( -14.877eV) occ=1.000
    -0.1154922E+01 ( -31.427eV) occ=1.000    -0.1151184E+01 ( -31.326eV) occ=1.000
    -0.1169689E+01 ( -31.829eV) occ=1.000    -0.1161098E+01 ( -31.595eV) occ=1.000
    -0.1213479E+01 ( -33.021eV) occ=1.000    -0.1175207E+01 ( -31.979eV) occ=1.000
    -0.1225741E+01 ( -33.354eV) occ=1.000    -0.1217556E+01 ( -33.132eV) occ=1.000
    -0.1246302E+01 ( -33.914eV) occ=1.000    -0.1241693E+01 ( -33.788eV) occ=1.000
    -0.1253228E+01 ( -34.102eV) occ=1.000    -0.1271169E+01 ( -34.591eV) occ=1.000

 Brillouin zone point:      8
    weight=  0.125000
    k     =<   0.375  -0.125   0.000> . <b1,b2,b3> 
          =<   0.362  -0.121  -0.000>

 orbital energies:
     0.3526159E+00 (   9.595eV) occ=1.000
     0.3447449E+00 (   9.381eV) occ=1.000
     0.3382435E+00 (   9.204eV) occ=1.000     0.3527507E+00 (   9.599eV) occ=1.000
     0.3370102E+00 (   9.171eV) occ=1.000     0.3417067E+00 (   9.298eV) occ=1.000
     0.3350124E+00 (   9.116eV) occ=1.000     0.3383140E+00 (   9.206eV) occ=1.000
     0.3317856E+00 (   9.028eV) occ=1.000     0.3365203E+00 (   9.157eV) occ=1.000
     0.3290373E+00 (   8.954eV) occ=1.000     0.3303750E+00 (   8.990eV) occ=1.000
     0.3232274E+00 (   8.796eV) occ=1.000     0.3222478E+00 (   8.769eV) occ=1.000
     0.3182440E+00 (   8.660eV) occ=1.000     0.3193398E+00 (   8.690eV) occ=1.000
     0.3152210E+00 (   8.578eV) occ=1.000     0.3171726E+00 (   8.631eV) occ=1.000
     0.3068895E+00 (   8.351eV) occ=1.000     0.3094898E+00 (   8.422eV) occ=1.000
     0.3027197E+00 (   8.237eV) occ=1.000     0.3045172E+00 (   8.286eV) occ=1.000
     0.2971608E+00 (   8.086eV) occ=1.000     0.3017517E+00 (   8.211eV) occ=1.000
     0.2884896E+00 (   7.850eV) occ=1.000     0.2905064E+00 (   7.905eV) occ=1.000
     0.2805952E+00 (   7.635eV) occ=1.000     0.2805720E+00 (   7.635eV) occ=1.000
     0.2711009E+00 (   7.377eV) occ=1.000     0.2710859E+00 (   7.377eV) occ=1.000
     0.2604270E+00 (   7.087eV) occ=1.000     0.2658263E+00 (   7.234eV) occ=1.000
     0.2579158E+00 (   7.018eV) occ=1.000     0.2579387E+00 (   7.019eV) occ=1.000
     0.2499863E+00 (   6.803eV) occ=1.000     0.2515745E+00 (   6.846eV) occ=1.000
     0.2456195E+00 (   6.684eV) occ=1.000     0.2378091E+00 (   6.471eV) occ=1.000
     0.1432182E+00 (   3.897eV) occ=1.000     0.1435675E+00 (   3.907eV) occ=1.000
     0.1305922E+00 (   3.554eV) occ=1.000     0.1305060E+00 (   3.551eV) occ=1.000
     0.9534473E-01 (   2.594eV) occ=1.000     0.9351051E-01 (   2.545eV) occ=1.000
    -0.1722524E+00 (  -4.687eV) occ=1.000    -0.1856598E+00 (  -5.052eV) occ=1.000
    -0.2132968E+00 (  -5.804eV) occ=1.000    -0.2192173E+00 (  -5.965eV) occ=1.000
    -0.2264964E+00 (  -6.163eV) occ=1.000    -0.2250018E+00 (  -6.123eV) occ=1.000
    -0.2394735E+00 (  -6.516eV) occ=1.000    -0.2297381E+00 (  -6.252eV) occ=1.000
    -0.2422946E+00 (  -6.593eV) occ=1.000    -0.2417860E+00 (  -6.579eV) occ=1.000
    -0.2668871E+00 (  -7.262eV) occ=1.000    -0.2448485E+00 (  -6.663eV) occ=1.000
    -0.2787171E+00 (  -7.584eV) occ=1.000    -0.2650031E+00 (  -7.211eV) occ=1.000
    -0.2832025E+00 (  -7.706eV) occ=1.000    -0.2736525E+00 (  -7.447eV) occ=1.000
    -0.2970797E+00 (  -8.084eV) occ=1.000    -0.2842784E+00 (  -7.736eV) occ=1.000
    -0.3098663E+00 (  -8.432eV) occ=1.000    -0.2881231E+00 (  -7.840eV) occ=1.000
    -0.3295886E+00 (  -8.969eV) occ=1.000    -0.3151479E+00 (  -8.576eV) occ=1.000
    -0.3328082E+00 (  -9.056eV) occ=1.000    -0.3291406E+00 (  -8.956eV) occ=1.000
    -0.3504761E+00 (  -9.537eV) occ=1.000    -0.3433114E+00 (  -9.342eV) occ=1.000
    -0.3713249E+00 ( -10.104eV) occ=1.000    -0.3591909E+00 (  -9.774eV) occ=1.000
    -0.3849251E+00 ( -10.474eV) occ=1.000    -0.3778958E+00 ( -10.283eV) occ=1.000
    -0.3970275E+00 ( -10.804eV) occ=1.000    -0.3908756E+00 ( -10.636eV) occ=1.000
[...]
     0.2508509E+00 (   6.826eV) occ=1.000     0.2641383E+00 (   7.188eV) occ=1.000
     0.2457597E+00 (   6.688eV) occ=1.000     0.2608213E+00 (   7.097eV) occ=1.000
     0.2389491E+00 (   6.502eV) occ=1.000     0.2413670E+00 (   6.568eV) occ=1.000
     0.2098359E+00 (   5.710eV) occ=1.000     0.2122696E+00 (   5.776eV) occ=1.000
     0.2070265E+00 (   5.634eV) occ=1.000     0.1920242E+00 (   5.225eV) occ=1.000
     0.1354783E+00 (   3.687eV) occ=1.000     0.1350509E+00 (   3.675eV) occ=1.000
     0.1198452E+00 (   3.261eV) occ=1.000     0.1193850E+00 (   3.249eV) occ=1.000
     0.4915308E-01 (   1.338eV) occ=1.000     0.4733046E-01 (   1.288eV) occ=1.000
    -0.1722693E+00 (  -4.688eV) occ=1.000    -0.1826153E+00 (  -4.969eV) occ=1.000
    -0.2144770E+00 (  -5.836eV) occ=1.000    -0.2062922E+00 (  -5.614eV) occ=1.000
    -0.2177055E+00 (  -5.924eV) occ=1.000    -0.2188535E+00 (  -5.955eV) occ=1.000
    -0.2279541E+00 (  -6.203eV) occ=1.000    -0.2256630E+00 (  -6.141eV) occ=1.000
    -0.2350115E+00 (  -6.395eV) occ=1.000    -0.2303944E+00 (  -6.269eV) occ=1.000
    -0.2528087E+00 (  -6.879eV) occ=1.000    -0.2390981E+00 (  -6.506eV) occ=1.000
    -0.2586284E+00 (  -7.038eV) occ=1.000    -0.2581488E+00 (  -7.025eV) occ=1.000
    -0.2823742E+00 (  -7.684eV) occ=1.000    -0.2665386E+00 (  -7.253eV) occ=1.000
    -0.2943616E+00 (  -8.010eV) occ=1.000    -0.2728085E+00 (  -7.424eV) occ=1.000
    -0.3054969E+00 (  -8.313eV) occ=1.000    -0.2922098E+00 (  -7.951eV) occ=1.000
    -0.3353465E+00 (  -9.125eV) occ=1.000    -0.3070390E+00 (  -8.355eV) occ=1.000
    -0.3438902E+00 (  -9.358eV) occ=1.000    -0.3193819E+00 (  -8.691eV) occ=1.000
    -0.3503042E+00 (  -9.532eV) occ=1.000    -0.3332567E+00 (  -9.068eV) occ=1.000
    -0.3572487E+00 (  -9.721eV) occ=1.000    -0.3521565E+00 (  -9.583eV) occ=1.000
    -0.3620781E+00 (  -9.853eV) occ=1.000    -0.3751767E+00 ( -10.209eV) occ=1.000
    -0.3765026E+00 ( -10.245eV) occ=1.000    -0.3807444E+00 ( -10.361eV) occ=1.000
    -0.3825362E+00 ( -10.409eV) occ=1.000    -0.3832265E+00 ( -10.428eV) occ=1.000
    -0.3925095E+00 ( -10.681eV) occ=1.000    -0.4025260E+00 ( -10.953eV) occ=1.000
    -0.3959499E+00 ( -10.774eV) occ=1.000    -0.4151989E+00 ( -11.298eV) occ=1.000
    -0.5466488E+00 ( -14.875eV) occ=1.000    -0.5471813E+00 ( -14.890eV) occ=1.000
    -0.1154833E+01 ( -31.425eV) occ=1.000    -0.1150601E+01 ( -31.310eV) occ=1.000
    -0.1170057E+01 ( -31.839eV) occ=1.000    -0.1159543E+01 ( -31.553eV) occ=1.000
    -0.1212456E+01 ( -32.993eV) occ=1.000    -0.1174648E+01 ( -31.964eV) occ=1.000
    -0.1225932E+01 ( -33.360eV) occ=1.000    -0.1220309E+01 ( -33.207eV) occ=1.000
    -0.1246386E+01 ( -33.916eV) occ=1.000    -0.1240732E+01 ( -33.762eV) occ=1.000
    -0.1252708E+01 ( -34.088eV) occ=1.000    -0.1274027E+01 ( -34.668eV) occ=1.000

 Brillouin zone point:      8
    weight=  0.125000
    k     =<   0.375  -0.125   0.000> . <b1,b2,b3> 
          =<   0.362  -0.121  -0.000>

 orbital energies:
     0.3526835E+00 (   9.597eV) occ=1.000
     0.3450123E+00 (   9.388eV) occ=1.000
     0.3394922E+00 (   9.238eV) occ=1.000     0.3508275E+00 (   9.547eV) occ=1.000
     0.3372341E+00 (   9.177eV) occ=1.000     0.3404085E+00 (   9.263eV) occ=1.000
     0.3346163E+00 (   9.105eV) occ=1.000     0.3376902E+00 (   9.189eV) occ=1.000
     0.3320681E+00 (   9.036eV) occ=1.000     0.3345487E+00 (   9.104eV) occ=1.000
     0.3292270E+00 (   8.959eV) occ=1.000     0.3303406E+00 (   8.989eV) occ=1.000
     0.3228242E+00 (   8.785eV) occ=1.000     0.3200925E+00 (   8.710eV) occ=1.000
     0.3178973E+00 (   8.650eV) occ=1.000     0.3189912E+00 (   8.680eV) occ=1.000
     0.3146780E+00 (   8.563eV) occ=1.000     0.3160468E+00 (   8.600eV) occ=1.000
     0.3067745E+00 (   8.348eV) occ=1.000     0.3100282E+00 (   8.436eV) occ=1.000
     0.3032809E+00 (   8.253eV) occ=1.000     0.3036022E+00 (   8.262eV) occ=1.000
     0.2970067E+00 (   8.082eV) occ=1.000     0.3010945E+00 (   8.193eV) occ=1.000
     0.2886005E+00 (   7.853eV) occ=1.000     0.2903419E+00 (   7.901eV) occ=1.000
     0.2813644E+00 (   7.656eV) occ=1.000     0.2806050E+00 (   7.636eV) occ=1.000
     0.2713258E+00 (   7.383eV) occ=1.000     0.2713705E+00 (   7.384eV) occ=1.000
     0.2599717E+00 (   7.074eV) occ=1.000     0.2645611E+00 (   7.199eV) occ=1.000
     0.2580940E+00 (   7.023eV) occ=1.000     0.2591805E+00 (   7.053eV) occ=1.000
     0.2500001E+00 (   6.803eV) occ=1.000     0.2507174E+00 (   6.822eV) occ=1.000
     0.2455919E+00 (   6.683eV) occ=1.000     0.2375964E+00 (   6.465eV) occ=1.000
     0.1423311E+00 (   3.873eV) occ=1.000     0.1434810E+00 (   3.904eV) occ=1.000
     0.1294529E+00 (   3.523eV) occ=1.000     0.1300332E+00 (   3.538eV) occ=1.000
     0.9375103E-01 (   2.551eV) occ=1.000     0.9183305E-01 (   2.499eV) occ=1.000
    -0.1700604E+00 (  -4.628eV) occ=1.000    -0.1836438E+00 (  -4.997eV) occ=1.000
    -0.2140490E+00 (  -5.825eV) occ=1.000    -0.2183486E+00 (  -5.942eV) occ=1.000
    -0.2263492E+00 (  -6.159eV) occ=1.000    -0.2240150E+00 (  -6.096eV) occ=1.000
    -0.2392329E+00 (  -6.510eV) occ=1.000    -0.2296220E+00 (  -6.248eV) occ=1.000
    -0.2427237E+00 (  -6.605eV) occ=1.000    -0.2417291E+00 (  -6.578eV) occ=1.000
    -0.2672285E+00 (  -7.272eV) occ=1.000    -0.2448149E+00 (  -6.662eV) occ=1.000
    -0.2792704E+00 (  -7.599eV) occ=1.000    -0.2653418E+00 (  -7.220eV) occ=1.000
    -0.2836934E+00 (  -7.720eV) occ=1.000    -0.2736008E+00 (  -7.445eV) occ=1.000
    -0.2972498E+00 (  -8.089eV) occ=1.000    -0.2858868E+00 (  -7.779eV) occ=1.000
    -0.3102359E+00 (  -8.442eV) occ=1.000    -0.2883557E+00 (  -7.847eV) occ=1.000
    -0.3297816E+00 (  -8.974eV) occ=1.000    -0.3161728E+00 (  -8.604eV) occ=1.000
    -0.3329719E+00 (  -9.061eV) occ=1.000    -0.3294360E+00 (  -8.964eV) occ=1.000
    -0.3504935E+00 (  -9.537eV) occ=1.000    -0.3436090E+00 (  -9.350eV) occ=1.000
    -0.3717301E+00 ( -10.115eV) occ=1.000    -0.3591600E+00 (  -9.773eV) occ=1.000
    -0.3854298E+00 ( -10.488eV) occ=1.000    -0.3797344E+00 ( -10.333eV) occ=1.000
    -0.3973139E+00 ( -10.812eV) occ=1.000    -0.3897012E+00 ( -10.604eV) occ=1.000
    -0.4018508E+00 ( -10.935eV) occ=1.000    -0.4121062E+00 ( -11.214eV) occ=1.000
    -0.4162356E+00 ( -11.326eV) occ=1.000    -0.4212875E+00 ( -11.464eV) occ=1.000
    -0.4226056E+00 ( -11.500eV) occ=1.000    -0.4380963E+00 ( -11.921eV) occ=1.000
    -0.5395552E+00 ( -14.682eV) occ=1.000    -0.5405175E+00 ( -14.708eV) occ=1.000
    -0.1168527E+01 ( -31.797eV) occ=1.000    -0.1155903E+01 ( -31.454eV) occ=1.000
    -0.1177799E+01 ( -32.050eV) occ=1.000    -0.1165531E+01 ( -31.716eV) occ=1.000
    -0.1197394E+01 ( -32.583eV) occ=1.000    -0.1167521E+01 ( -31.770eV) occ=1.000
    -0.1229377E+01 ( -33.453eV) occ=1.000    -0.1230565E+01 ( -33.486eV) occ=1.000
    -0.1238190E+01 ( -33.693eV) occ=1.000    -0.1234005E+01 ( -33.579eV) occ=1.000
    -0.1242406E+01 ( -33.808eV) occ=1.000    -0.1257473E+01 ( -34.218eV) occ=1.000

 Total BAND energy   :  -0.3398689542E+03


=== Spin Contamination ===

 <Sexact^2> =    2.0000000000000000     
 <S^2>      =    8.2456053438491317     



========================
= Gradient calculation =
========================


Translation force removed: (   -0.00000    0.00001    0.00000)


          =============  Ion Gradients =================
 Ion Forces:
        1 U    (    0.00000   -0.00001   -0.00000 )
        2 U    (    0.00000   -0.00001   -0.00000 )
        3 U    (    0.00000   -0.00001   -0.00000 )
        4 U    (    0.00000   -0.00001   -0.00000 )
        5 U    (    0.00000   -0.00001   -0.00000 )
        6 U    (    0.00000   -0.00001   -0.00000 )
        7 O    (   -0.00043    0.00022   -0.00008 )
        8 O    (    0.00000    0.00050    0.00010 )
        C.O.M. (   -0.00000    0.00000    0.00000 )
          ===============================================
          |F|       =   0.707317E-03
          |F|/nion  =   0.884146E-04
          max|Fatom|=   0.506442E-03 (   0.026eV/Angstrom)



 Writing Crystallographic Information File:./perm/U6O2.opt.cif
   - cell not shifted (nwpw:cif_shift_cell .false.)

 output psi filename:./perm/U6O2-100-crossctr.movecs


== Timing ==

cputime in seconds
  prologue    :   0.469230E+03
  main loop   :   0.156543E+03
  epilogue    :   0.242375E+03
  total       :   0.868147E+03
  cputime/step:   0.248481E+01       (      63 evalulations,      28 linesearches)


Time spent doing                        total          step
  FFTs                       :   0.801577E+01  0.127234E+00
  dot products               :   0.280786E+02  0.445692E+00
  geodesic                   :   0.165218E+02  0.262250E+00
  ffm_dgemm                  :   0.000000E+00  0.000000E+00
  fmf_dgemm                  :   0.000000E+00  0.000000E+00
  m_diagonalize              :   0.000000E+00  0.000000E+00
    - m_tredq                :   0.000000E+00  0.000000E+00
       - m_tredq_houseq      :   0.000000E+00  0.000000E+00
       - m_tredq_houseq_dgemm:   0.000000E+00  0.000000E+00
       - m_tredq_dgemm1      :   0.000000E+00  0.000000E+00
    - m_getdiags             :   0.000000E+00  0.000000E+00
    - m_tqliq                :   0.000000E+00  0.000000E+00
    - m_eigsrt               :   0.000000E+00  0.000000E+00
  exchange correlation       :   0.122520E+02  0.194476E+00
  local pseudopotentials     :   0.856805E-02  0.136001E-03
  non-local pseudopotentials :   0.104595E+02  0.166023E+00
  hartree potentials         :   0.184038E-01  0.292123E-03
  ion-ion interaction        :   0.738831E-01  0.117275E-02
  structure factors          :   0.213365E-01  0.338675E-03
  phase factors              :   0.000000E+00  0.000000E+00
  masking and packing        :   0.102020E+02  0.161936E+00
  queue fft                  :   0.928810E+02  0.147430E+01
  queue fft (serial)         :   0.262757E+02  0.417074E+00
  queue fft (message passing):   0.622768E+02  0.988521E+00
  HFX potential              :   0.000000E+00  0.000000E+00
  qmmm LJ                    :   0.000000E+00  0.000000E+00
  qmmm residual Q            :   0.000000E+00  0.000000E+00

     >>>  JOB COMPLETED     AT Wed Apr  3 11:41:56 2013  <<<

  Step       Energy      Delta E   Gmax     Grms     Xrms     Xmax   Walltime
  ---- ---------------- -------- -------- -------- -------- -------- --------
@   18    -339.86895421  2.0D-05  0.00401  0.00143  0.00019  0.00068  44743.4
                                     ok       ok       ok       ok  


      ----------------------
      Optimization converged
      ----------------------


  Step       Energy      Delta E   Gmax     Grms     Xrms     Xmax   Walltime
  ---- ---------------- -------- -------- -------- -------- -------- --------
@   18    -339.86895421  2.0D-05  0.00401  0.00143  0.00019  0.00068  44743.4
                                     ok       ok       ok       ok  



                         Geometry "geometry" -> "geometry"
                         ---------------------------------

 Output coordinates in angstroms (scale by  1.889725989 to convert to a.u.)

  No.       Tag          Charge          X              Y              Z
 ---- ---------------- ---------- -------------- -------------- --------------
    1 U1                  92.0000     1.72000000     1.72000000    16.07240880
    2 U2                  92.0000     0.00000000     0.00000000    14.86311120
    3 U3                  92.0000     1.72000000     1.72000000    12.87997920
    4 U4                  92.0000     0.00000000     0.00000000    11.16000000
    5 U5                  92.0000     1.72000000     1.72000000     9.17686800
    6 U6                  92.0000     0.00000000     0.00000000     7.96757040
    7 O1                   8.0000     1.05506702     0.85971457    17.90739974
    8 O2                   8.0000     3.20049859     1.23136641    17.62845478

      Lattice Parameters 
      ------------------ 

      lattice vectors in angstroms (scale by  1.889725989 to convert to a.u.)

      a1=<   3.440   0.000   0.000 >
      a2=<   0.000   3.440   0.000 >
      a3=<   0.000   0.000  22.320 >
      a=       3.440 b=      3.440 c=      22.320
      alpha=  90.000 beta=  90.000 gamma=  90.000
      omega=   264.1

      reciprocal lattice vectors in a.u.

      b1=<   0.967   0.000  -0.000 >
      b2=<  -0.000   0.967  -0.000 >
      b3=<   0.000   0.000   0.149 >

      Atomic Mass 
      ----------- 

      U1               238.050800
      U2               238.050800
      U3               238.050800
      U4               238.050800
      U5               238.050800
      U6               238.050800
      O1                15.994910
      O2                15.994910


 ==============================================================================
                                internuclear distances
 ------------------------------------------------------------------------------
       center one      |      center two      | atomic units |  angstroms
 ------------------------------------------------------------------------------
    2 U2               |   1 U1               |     5.13338  |     2.71647
    3 U3               |   1 U1               |     6.03282  |     3.19243
    3 U3               |   2 U2               |     5.93073  |     3.13841
    4 U4               |   2 U2               |     6.99787  |     3.70311
    4 U4               |   3 U3               |     5.62971  |     2.97912
    5 U5               |   3 U3               |     6.99787  |     3.70311
    5 U5               |   4 U4               |     5.93073  |     3.13841
    6 U6               |   4 U4               |     6.03282  |     3.19243
    6 U6               |   5 U5               |     5.13338  |     2.71647
    7 O1               |   1 U1               |     4.03067  |     2.13294
    8 O2               |   1 U1               |     4.16251  |     2.20271
 ------------------------------------------------------------------------------
                         number of included internuclear distances:         11
 ==============================================================================



 ==============================================================================
                                 internuclear angles
 ------------------------------------------------------------------------------
        center 1       |       center 2       |       center 3       |  degrees
 ------------------------------------------------------------------------------
    1 U1               |   2 U2               |   3 U3               |    65.62
    2 U2               |   1 U1               |   7 O1               |    86.00
    2 U2               |   1 U1               |   8 O2               |   126.84
    3 U3               |   1 U1               |   7 O1               |   149.35
    3 U3               |   1 U1               |   8 O2               |   134.94
    7 O1               |   1 U1               |   8 O2               |    60.81
    1 U1               |   2 U2               |   3 U3               |    65.62
    1 U1               |   2 U2               |   4 U4               |   116.43
    2 U2               |   3 U3               |   4 U4               |    74.45
    3 U3               |   2 U2               |   1 U1               |    65.62
    1 U1               |   3 U3               |   4 U4               |   125.26
    1 U1               |   3 U3               |   5 U5               |   180.00
    2 U2               |   3 U3               |   4 U4               |    74.45
    2 U2               |   3 U3               |   5 U5               |   129.19
    3 U3               |   4 U4               |   5 U5               |    74.45
    4 U4               |   3 U3               |   2 U2               |    74.45
    2 U2               |   4 U4               |   5 U5               |   129.19
    2 U2               |   4 U4               |   6 U6               |   180.00
    3 U3               |   4 U4               |   5 U5               |    74.45
    3 U3               |   4 U4               |   6 U6               |   125.26
    4 U4               |   5 U5               |   6 U6               |    65.62
    5 U5               |   4 U4               |   3 U3               |    74.45
    3 U3               |   5 U5               |   6 U6               |   116.43
    4 U4               |   5 U5               |   6 U6               |    65.62
    6 U6               |   5 U5               |   4 U4               |    65.62
 ------------------------------------------------------------------------------
                            number of included internuclear angles:         25
 ==============================================================================




 Task  times  cpu:    39275.9s     wall:    44718.6s
 Summary of allocated global arrays
-----------------------------------
  No active global arrays



                         GA Statistics for process    0
                         ------------------------------

       create   destroy   get      put      acc     scatter   gather  read&inc
calls:    0        0        0        0        0        0        0        0     
number of processes/call 0.00e+00 0.00e+00 0.00e+00 0.00e+00 0.00e+00
bytes total:             0.00e+00 0.00e+00 0.00e+00 0.00e+00 0.00e+00 0.00e+00
bytes remote:            0.00e+00 0.00e+00 0.00e+00 0.00e+00 0.00e+00 0.00e+00
Max memory consumed for GA by this process: 0 bytes
MA_summarize_allocated_blocks: starting scan ...
MA_summarize_allocated_blocks: scan completed: 0 heap blocks, 0 stack blocks
MA usage statistics:

	allocation statistics:
					      heap	     stack
					      ----	     -----
	current number of blocks	         0	         0
	maximum number of blocks	       283	        25
	current total bytes		         0	         0
	maximum total bytes		 441424696	 254460480
	maximum total K-bytes		    441425	    254461
	maximum total M-bytes		       442	       255


                                NWChem Input Module
                                -------------------





                                     CITATION
                                     --------
                Please cite the following reference when publishing
                           results obtained with NWChem:

                 M. Valiev, E.J. Bylaska, N. Govind, K. Kowalski,
              T.P. Straatsma, H.J.J. van Dam, D. Wang, J. Nieplocha,
                        E. Apra, T.L. Windus, W.A. de Jong
                 "NWChem: a comprehensive and scalable open-source
                  solution for large scale molecular simulations"
                      Comput. Phys. Commun. 181, 1477 (2010)
                           doi:10.1016/j.cpc.2010.04.018

                              AUTHORS & CONTRIBUTORS
                              ----------------------
          E. Apra, E. J. Bylaska, W. A. de Jong, N. Govind, K. Kowalski,
       T. P. Straatsma, M. Valiev, H. J. J. van Dam, D. Wang, T. L. Windus,
    J. Hammond, J. Autschbach, F. Aquino, S. Hirata, M. T. Hackler, K. Lopata,
      J. Mullin, P. Nichols, R. Peverati, Y. Zhao, P.-D. Fan, R. J. Harrison,
        M. Dupuis, D. M. A. Smith, J. Nieplocha, V. Tipparaju, M. Krishnan,
       B. E. Van Kuiken, A. Vazquez-Mayagoitia, L. Jensen, M. Swart, Q. Wu,
   T. Van Voorhis, A. A. Auer, M. Nooijen, L. D. Crosby, E. Brown, G. Cisneros,
      G. I. Fann, H. Fruchtl, J. Garza, K. Hirao, R. Kendall, J. A. Nichols,
        K. Tsemekhman, K. Wolinski, J. Anchell, D. Bernholdt, P. Borowski,
  T. Clark, D. Clerc, H. Dachsel, M. Deegan, K. Dyall, D. Elwood, E. Glendening,
         M. Gutowski, A. Hess, J. Jaffe, B. Johnson, J. Ju, R. Kobayashi,
     R. Kutteh, Z. Lin, R. Littlefield, X. Long, B. Meng, T. Nakajima, S. Niu,
      L. Pollack, M. Rosing, K. Glaesemann, G. Sandrone, M. Stave, H. Taylor,
                  G. Thomas, J. H. van Lenthe, A. Wong, Z. Zhang.

 Total times  cpu:    39288.3s     wall:    44745.6s
