 argument  1 = ./U8O2_3-110-opt.nw



============================== echo of input deck ==============================
title "Gamma-uranium (100) adsorption"
echo

permanent_dir ./perm
scratch_dir   ./scratch

start U8O2_3-110-opt

memory 2500 mb

nwpw
  # Real-space discretization
  simulation_cell
    ngrid 64 48 200
  end

  # Spin multiplicity---quenched to 1 in the solid state
  mult 3

  # Band, k-point sampling, and parallelism
  monkhorst-pack 4 4 1
  np_dimensions 8 12 8
  mapping 2

  # Periodicity considerations
  ewald_rcut 3.0
  ewald_ncut 8

  # Simulation parameters
  #restricted    # DFT||ODFT||RESTRICTED||UNRESTRICTED
  xc pbe96
  cutoff 90.0
  loop 10 300
  tolerances 1.0e-7 1.0e-7
end
set nwpw:minimizer      2
set nwpw:lcao_skip      .true.
set nwpw:kbpp_ray       .true.
set nwpw:kbpp_filter    .true.

## Optimization ##
driver
  #clear                # Deletes all restart data
  loose               # Specify loose, default, or tight convergence
  xyz U8O2     # Output XYZ file of geometry at each stage
  maxiter 80
end
set driver:linopt 0
set nwpw:cif_filename U8O2-110.opt
set nwpw:psi_nolattice .true.

#       (110) gamma-uranium surface with surface displacements:	15.30%	and X displacement of	2.000	Å
geometry	center	noautosym	noautoz	print
	system	crystal
	lat_a	6.880
	lat_b	4.865
	lat_c	21.730
	alpha	90.0d0
	beta	90.0d0
	gamma	90.0d0
	end
	U1	0.00000	0.00000	0.66902
	U2	0.25000	0.50000	0.66902
	U3	0.50000	0.00000	0.66902
	U4	0.75000	0.50000	0.66902
	U5	0.00000	0.50000	0.59110
	U6	0.25000	0.00000	0.59110
	U7	0.50000	0.50000	0.59110
	U8	0.75000	0.00000	0.59110
	U9	0.00000	0.00000	0.50000
	U10	0.25000	0.50000	0.50000
	U11	0.50000	0.00000	0.50000
	U12	0.75000	0.50000	0.50000
	O1	0.28706	0.25000	0.70663
	O2	0.46294	0.25000	0.70663
end
constraints surf
  fix atom 1:12
end
set constraints surf
task band optimize ignore

# A.M.D.G.
================================================================================


                                         
                                         


             Northwest Computational Chemistry Package (NWChem) 6.1.1
             --------------------------------------------------------


                    Environmental Molecular Sciences Laboratory
                       Pacific Northwest National Laboratory
                                Richland, WA 99352

                              Copyright (c) 1994-2012
                       Pacific Northwest National Laboratory
                            Battelle Memorial Institute

             NWChem is an open-source computational chemistry package
                        distributed under the terms of the
                      Educational Community License (ECL) 2.0
             A copy of the license is included with this distribution
                              in the LICENSE.TXT file

                                  ACKNOWLEDGMENT
                                  --------------

            This software and its documentation were developed at the
            EMSL at Pacific Northwest National Laboratory, a multiprogram
            national laboratory, operated for the U.S. Department of Energy
            by Battelle under Contract Number DE-AC05-76RL01830. Support
            for this work was provided by the Department of Energy Office
            of Biological and Environmental Research, Office of Basic
            Energy Sciences, and the Office of Advanced Scientific Computing.


           Job information
           ---------------

    hostname        = taub372
    program         = /home/davis68/bin/nwchem-dev
    date            = Sat Apr  6 13:42:04 2013

    compiled        = Wed_Oct_03_09:41:00_2012
    source          = /home/davis68/nwchem/nwchem-src-2012-Aug-27/
    nwchem branch   = Development
    nwchem revision = 22805
    ga revision     = 10079
    input           = ./U8O2_3-110-opt.nw
    prefix          = U8O2_3-110-opt.
    data base       = ./perm/U8O2_3-110-opt.db
    status          = startup
    nproc           =      288
    time left       =     -1s



           Memory information
           ------------------

    heap     =   81920001 doubles =    625.0 Mbytes
    stack    =   81920001 doubles =    625.0 Mbytes
    global   =  163840000 doubles =   1250.0 Mbytes (distinct from heap & stack)
    total    =  327680002 doubles =   2500.0 Mbytes
    verify   = yes
    hardfail = no 


           Directory information
           ---------------------

  0 permanent = ./perm
  0 scratch   = ./scratch




                                NWChem Input Module
                                -------------------


                          Gamma-uranium (100) adsorption
                          ------------------------------

  !!!!!!!!!  geom_3d NEEDS TESTING !!!!!!!!!! 


                             Geometry "geometry" -> ""
                             -------------------------

 Output coordinates in angstroms (scale by  1.889725989 to convert to a.u.)

  No.       Tag          Charge          X              Y              Z
 ---- ---------------- ---------- -------------- -------------- --------------
    1 U1                  92.0000     0.00000000     0.00000000    14.53780460
    2 U2                  92.0000     1.72000000     2.43250000    14.53780460
    3 U3                  92.0000     3.44000000     0.00000000    14.53780460
    4 U4                  92.0000     5.16000000     2.43250000    14.53780460
    5 U5                  92.0000     0.00000000     2.43250000    12.84460300
    6 U6                  92.0000     1.72000000     0.00000000    12.84460300
    7 U7                  92.0000     3.44000000     2.43250000    12.84460300
    8 U8                  92.0000     5.16000000     0.00000000    12.84460300
    9 U9                  92.0000     0.00000000     0.00000000    10.86500000
   10 U10                 92.0000     1.72000000     2.43250000    10.86500000
   11 U11                 92.0000     3.44000000     0.00000000    10.86500000
   12 U12                 92.0000     5.16000000     2.43250000    10.86500000
   13 O1                   8.0000     1.97497280     1.21625000    15.35506990
   14 O2                   8.0000     3.18502720     1.21625000    15.35506990

      Lattice Parameters 
      ------------------ 

      lattice vectors in angstroms (scale by  1.889725989 to convert to a.u.)

      a1=<   6.880   0.000   0.000 >
      a2=<   0.000   4.865   0.000 >
      a3=<   0.000   0.000  21.730 >
      a=       6.880 b=      4.865 c=      21.730
      alpha=  90.000 beta=  90.000 gamma=  90.000
      omega=   727.3

      reciprocal lattice vectors in a.u.

      b1=<   0.483   0.000  -0.000 >
      b2=<  -0.000   0.683  -0.000 >
      b3=<   0.000   0.000   0.153 >

      Atomic Mass 
      ----------- 

      U1               238.050800
      U2               238.050800
      U3               238.050800
      U4               238.050800
      U5               238.050800
      U6               238.050800
      U7               238.050800
      U8               238.050800
      U9               238.050800
      U10              238.050800
      U11              238.050800
      U12              238.050800
      O1                15.994910
      O2                15.994910


 ==============================================================================
                                internuclear distances
 ------------------------------------------------------------------------------
       center one      |      center two      | atomic units |  angstroms
 ------------------------------------------------------------------------------
    2 U2               |   1 U1               |     5.62982  |     2.97917
    3 U3               |   1 U1               |     6.50066  |     3.44000
    3 U3               |   2 U2               |     5.62982  |     2.97917
    4 U4               |   2 U2               |     6.50066  |     3.44000
    4 U4               |   3 U3               |     5.62982  |     2.97917
    5 U5               |   1 U1               |     5.60073  |     2.96378
    5 U5               |   2 U2               |     4.56099  |     2.41357
    6 U6               |   1 U1               |     4.56099  |     2.41357
    6 U6               |   2 U2               |     5.60073  |     2.96378
    6 U6               |   3 U3               |     4.56099  |     2.41357
    6 U6               |   5 U5               |     5.62982  |     2.97917
    7 U7               |   2 U2               |     4.56099  |     2.41357
    7 U7               |   3 U3               |     5.60073  |     2.96378
    7 U7               |   4 U4               |     4.56099  |     2.41357
    7 U7               |   5 U5               |     6.50066  |     3.44000
    7 U7               |   6 U6               |     5.62982  |     2.97917
    8 U8               |   3 U3               |     4.56099  |     2.41357
    8 U8               |   4 U4               |     5.60073  |     2.96378
    8 U8               |   6 U6               |     6.50066  |     3.44000
    8 U8               |   7 U7               |     5.62982  |     2.97917
    9 U9               |   1 U1               |     6.94059  |     3.67280
    9 U9               |   5 U5               |     5.92660  |     3.13622
    9 U9               |   6 U6               |     4.95571  |     2.62245
   10 U10              |   2 U2               |     6.94059  |     3.67280
   10 U10              |   5 U5               |     4.95571  |     2.62245
   10 U10              |   6 U6               |     5.92660  |     3.13622
   10 U10              |   7 U7               |     4.95571  |     2.62245
   10 U10              |   9 U9               |     5.62982  |     2.97917
   11 U11              |   3 U3               |     6.94059  |     3.67280
   11 U11              |   6 U6               |     4.95571  |     2.62245
   11 U11              |   7 U7               |     5.92660  |     3.13622
   11 U11              |   8 U8               |     4.95571  |     2.62245
   11 U11              |   9 U9               |     6.50066  |     3.44000
   11 U11              |  10 U10              |     5.62982  |     2.97917
   12 U12              |   4 U4               |     6.94059  |     3.67280
   12 U12              |   7 U7               |     4.95571  |     2.62245
   12 U12              |   8 U8               |     5.92660  |     3.13622
   12 U12              |  10 U10              |     6.50066  |     3.44000
   12 U12              |  11 U11              |     5.62982  |     2.97917
   13 O1               |   1 U1               |     4.64723  |     2.45921
   13 O1               |   2 U2               |     2.81068  |     1.48735
   13 O1               |   3 U3               |     3.91565  |     2.07207
   13 O1               |   6 U6               |     5.29350  |     2.80120
   14 O2               |   2 U2               |     3.91565  |     2.07207
   14 O2               |   3 U3               |     2.81068  |     1.48735
   14 O2               |   4 U4               |     4.64723  |     2.45921
   14 O2               |   7 U7               |     5.29350  |     2.80120
   14 O2               |  13 O1               |     2.28667  |     1.21005
 ------------------------------------------------------------------------------
                         number of included internuclear distances:         48
 ==============================================================================



 ==============================================================================
                                 internuclear angles
 ------------------------------------------------------------------------------
        center 1       |       center 2       |       center 3       |  degrees
 ------------------------------------------------------------------------------
    1 U1               |   2 U2               |   3 U3               |    70.53
    1 U1               |   5 U5               |   2 U2               |    66.37
    1 U1               |   6 U6               |   2 U2               |    66.37
    2 U2               |   1 U1               |   9 U9               |    90.00
    1 U1               |  13 O1               |   2 U2               |    94.83
    3 U3               |   1 U1               |   5 U5               |    90.00
    1 U1               |   6 U6               |   3 U3               |    90.90
    3 U3               |   1 U1               |   9 U9               |    90.00
    1 U1               |  13 O1               |   3 U3               |    98.42
    5 U5               |   1 U1               |   6 U6               |    66.37
    1 U1               |   5 U5               |   9 U9               |    73.98
    5 U5               |   1 U1               |  13 O1               |    77.52
    1 U1               |   6 U6               |   9 U9               |    93.56
    6 U6               |   1 U1               |  13 O1               |    70.17
    9 U9               |   1 U1               |  13 O1               |   109.41
    1 U1               |   2 U2               |   3 U3               |    70.53
    1 U1               |   2 U2               |   4 U4               |   125.26
    2 U2               |   5 U5               |   1 U1               |    66.37
    2 U2               |   6 U6               |   1 U1               |    66.37
    1 U1               |   2 U2               |   7 U7               |   114.30
    1 U1               |   2 U2               |  10 U10              |    90.00
    2 U2               |  13 O1               |   1 U1               |    94.83
    1 U1               |   2 U2               |  14 O2               |    85.92
    2 U2               |   3 U3               |   4 U4               |    70.53
    3 U3               |   2 U2               |   5 U5               |   114.30
    2 U2               |   6 U6               |   3 U3               |    66.37
    2 U2               |   7 U7               |   3 U3               |    66.37
    3 U3               |   2 U2               |  10 U10              |    90.00
    2 U2               |  13 O1               |   3 U3               |   112.61
    2 U2               |  14 O2               |   3 U3               |   112.61
    4 U4               |   2 U2               |   5 U5               |   135.45
    4 U4               |   2 U2               |   6 U6               |    90.00
    2 U2               |   7 U7               |   4 U4               |    90.90
    4 U4               |   2 U2               |  10 U10              |    90.00
    4 U4               |   2 U2               |  13 O1               |    80.13
    2 U2               |  14 O2               |   4 U4               |    98.42
    5 U5               |   2 U2               |   6 U6               |    66.37
    5 U5               |   2 U2               |   7 U7               |    90.90
    2 U2               |   5 U5               |  10 U10              |    93.56
    5 U5               |   2 U2               |  13 O1               |   120.51
    5 U5               |   2 U2               |  14 O2               |   141.31
    6 U6               |   2 U2               |   7 U7               |    66.37
    2 U2               |   6 U6               |  10 U10              |    73.98
    2 U2               |  13 O1               |   6 U6               |    81.20
    6 U6               |   2 U2               |  14 O2               |    75.14
    2 U2               |   7 U7               |  10 U10              |    93.56
    7 U7               |   2 U2               |  13 O1               |   105.27
    7 U7               |   2 U2               |  14 O2               |    76.87
   10 U10              |   2 U2               |  13 O1               |   123.33
   10 U10              |   2 U2               |  14 O2               |   113.23
    2 U2               |  13 O1               |  14 O2               |    99.87
    3 U3               |   2 U2               |   1 U1               |    70.53
    1 U1               |   3 U3               |   4 U4               |   125.26
    3 U3               |   6 U6               |   1 U1               |    90.90
    1 U1               |   3 U3               |   7 U7               |    90.00
    1 U1               |   3 U3               |   8 U8               |   135.45
    1 U1               |   3 U3               |  11 U11              |    90.00
    3 U3               |  13 O1               |   1 U1               |    98.42
    1 U1               |   3 U3               |  14 O2               |    80.13
    2 U2               |   3 U3               |   4 U4               |    70.53
    3 U3               |   6 U6               |   2 U2               |    66.37
    3 U3               |   7 U7               |   2 U2               |    66.37
    2 U2               |   3 U3               |   8 U8               |   114.30
    2 U2               |   3 U3               |  11 U11              |    90.00
    3 U3               |  13 O1               |   2 U2               |   112.61
    3 U3               |  14 O2               |   2 U2               |   112.61
    4 U4               |   3 U3               |   6 U6               |   114.30
    3 U3               |   7 U7               |   4 U4               |    66.37
    3 U3               |   8 U8               |   4 U4               |    66.37
    4 U4               |   3 U3               |  11 U11              |    90.00
    4 U4               |   3 U3               |  13 O1               |    85.92
    3 U3               |  14 O2               |   4 U4               |    94.83
    6 U6               |   3 U3               |   7 U7               |    66.37
    6 U6               |   3 U3               |   8 U8               |    90.90
    3 U3               |   6 U6               |  11 U11              |    93.56
    6 U6               |   3 U3               |  13 O1               |    76.87
    6 U6               |   3 U3               |  14 O2               |   105.27
    7 U7               |   3 U3               |   8 U8               |    66.37
    3 U3               |   7 U7               |  11 U11              |    73.98
    7 U7               |   3 U3               |  13 O1               |    75.14
    3 U3               |  14 O2               |   7 U7               |    81.20
    3 U3               |   8 U8               |  11 U11              |    93.56
    8 U8               |   3 U3               |  13 O1               |   141.31
    8 U8               |   3 U3               |  14 O2               |   120.51
   11 U11              |   3 U3               |  13 O1               |   113.23
   11 U11              |   3 U3               |  14 O2               |   123.33
    3 U3               |  14 O2               |  13 O1               |    99.87
    4 U4               |   3 U3               |   2 U2               |    70.53
    4 U4               |   7 U7               |   2 U2               |    90.90
    2 U2               |   4 U4               |   8 U8               |    90.00
    2 U2               |   4 U4               |  12 U12              |    90.00
    4 U4               |  14 O2               |   2 U2               |    98.42
    4 U4               |   7 U7               |   3 U3               |    66.37
    4 U4               |   8 U8               |   3 U3               |    66.37
    3 U3               |   4 U4               |  12 U12              |    90.00
    4 U4               |  14 O2               |   3 U3               |    94.83
    7 U7               |   4 U4               |   8 U8               |    66.37
    4 U4               |   7 U7               |  12 U12              |    93.56
    7 U7               |   4 U4               |  14 O2               |    70.17
    4 U4               |   8 U8               |  12 U12              |    73.98
    8 U8               |   4 U4               |  14 O2               |    77.52
   12 U12              |   4 U4               |  14 O2               |   109.41
    1 U1               |   5 U5               |   2 U2               |    66.37
    5 U5               |   1 U1               |   6 U6               |    66.37
    1 U1               |   5 U5               |   7 U7               |    90.00
    1 U1               |   5 U5               |   9 U9               |    73.98
    1 U1               |   5 U5               |  10 U10              |   115.55
    5 U5               |   2 U2               |   6 U6               |    66.37
    5 U5               |   2 U2               |   7 U7               |    90.90
    2 U2               |   5 U5               |   9 U9               |   116.28
    2 U2               |   5 U5               |  10 U10              |    93.56
    5 U5               |   6 U6               |   7 U7               |    70.53
    5 U5               |   6 U6               |   9 U9               |    67.75
    6 U6               |   5 U5               |  10 U10              |    67.75
    7 U7               |   5 U5               |   9 U9               |    90.00
    5 U5               |  10 U10              |   7 U7               |    81.97
    5 U5               |  10 U10              |   9 U9               |    67.75
    1 U1               |   6 U6               |   2 U2               |    66.37
    1 U1               |   6 U6               |   3 U3               |    90.90
    6 U6               |   1 U1               |   5 U5               |    66.37
    1 U1               |   6 U6               |   7 U7               |   114.30
    1 U1               |   6 U6               |   8 U8               |   135.45
    1 U1               |   6 U6               |   9 U9               |    93.56
    1 U1               |   6 U6               |  10 U10              |   116.28
    1 U1               |   6 U6               |  11 U11              |   175.54
    6 U6               |   1 U1               |  13 O1               |    70.17
    2 U2               |   6 U6               |   3 U3               |    66.37
    6 U6               |   2 U2               |   5 U5               |    66.37
    6 U6               |   2 U2               |   7 U7               |    66.37
    2 U2               |   6 U6               |   8 U8               |    90.00
    2 U2               |   6 U6               |   9 U9               |   115.55
    2 U2               |   6 U6               |  10 U10              |    73.98
    2 U2               |   6 U6               |  11 U11              |   115.55
    6 U6               |  13 O1               |   2 U2               |    81.20
    3 U3               |   6 U6               |   5 U5               |   114.30
    6 U6               |   3 U3               |   7 U7               |    66.37
    6 U6               |   3 U3               |   8 U8               |    90.90
    3 U3               |   6 U6               |   9 U9               |   175.54
    3 U3               |   6 U6               |  10 U10              |   116.28
    3 U3               |   6 U6               |  11 U11              |    93.56
    6 U6               |   3 U3               |  13 O1               |    76.87
    5 U5               |   6 U6               |   7 U7               |    70.53
    5 U5               |   6 U6               |   8 U8               |   125.26
    5 U5               |   6 U6               |   9 U9               |    67.75
    6 U6               |   5 U5               |  10 U10              |    67.75
    5 U5               |   6 U6               |  11 U11              |   112.25
    5 U5               |   6 U6               |  13 O1               |    72.42
    6 U6               |   7 U7               |   8 U8               |    70.53
    7 U7               |   6 U6               |   9 U9               |   112.25
    6 U6               |   7 U7               |  10 U10              |    67.75
    7 U7               |   6 U6               |  11 U11              |    67.75
    7 U7               |   6 U6               |  13 O1               |    65.98
    8 U8               |   6 U6               |   9 U9               |   130.99
    8 U8               |   6 U6               |  10 U10              |    90.00
    6 U6               |  11 U11              |   8 U8               |    81.97
    8 U8               |   6 U6               |  13 O1               |    84.78
    6 U6               |   9 U9               |  10 U10              |    67.75
    9 U9               |   6 U6               |  11 U11              |    81.97
    9 U9               |   6 U6               |  13 O1               |   137.41
    6 U6               |  11 U11              |  10 U10              |    67.75
   10 U10              |   6 U6               |  13 O1               |   103.23
   11 U11              |   6 U6               |  13 O1               |   128.08
    2 U2               |   7 U7               |   3 U3               |    66.37
    2 U2               |   7 U7               |   4 U4               |    90.90
    7 U7               |   2 U2               |   5 U5               |    90.90
    7 U7               |   2 U2               |   6 U6               |    66.37
    2 U2               |   7 U7               |   8 U8               |   114.30
    2 U2               |   7 U7               |  10 U10              |    93.56
    2 U2               |   7 U7               |  11 U11              |   116.28
    2 U2               |   7 U7               |  12 U12              |   175.54
    7 U7               |   2 U2               |  14 O2               |    76.87
    3 U3               |   7 U7               |   4 U4               |    66.37
    3 U3               |   7 U7               |   5 U5               |    90.00
    7 U7               |   3 U3               |   6 U6               |    66.37
    7 U7               |   3 U3               |   8 U8               |    66.37
    3 U3               |   7 U7               |  10 U10              |   115.55
    3 U3               |   7 U7               |  11 U11              |    73.98
    3 U3               |   7 U7               |  12 U12              |   115.55
    7 U7               |  14 O2               |   3 U3               |    81.20
    4 U4               |   7 U7               |   5 U5               |   135.45
    4 U4               |   7 U7               |   6 U6               |   114.30
    7 U7               |   4 U4               |   8 U8               |    66.37
    4 U4               |   7 U7               |  10 U10              |   175.54
    4 U4               |   7 U7               |  11 U11              |   116.28
    4 U4               |   7 U7               |  12 U12              |    93.56
    7 U7               |   4 U4               |  14 O2               |    70.17
    7 U7               |   6 U6               |   5 U5               |    70.53
    5 U5               |   7 U7               |   8 U8               |   125.26
    7 U7               |  10 U10              |   5 U5               |    81.97
    5 U5               |   7 U7               |  11 U11              |    90.00
    5 U5               |   7 U7               |  12 U12              |   130.99
    5 U5               |   7 U7               |  14 O2               |    84.78
    6 U6               |   7 U7               |   8 U8               |    70.53
    6 U6               |   7 U7               |  10 U10              |    67.75
    7 U7               |   6 U6               |  11 U11              |    67.75
    6 U6               |   7 U7               |  12 U12              |   112.25
    6 U6               |   7 U7               |  14 O2               |    65.98
    8 U8               |   7 U7               |  10 U10              |   112.25
    7 U7               |   8 U8               |  11 U11              |    67.75
    8 U8               |   7 U7               |  12 U12              |    67.75
    8 U8               |   7 U7               |  14 O2               |    72.42
    7 U7               |  10 U10              |  11 U11              |    67.75
   10 U10              |   7 U7               |  12 U12              |    81.97
   10 U10              |   7 U7               |  14 O2               |   128.08
    7 U7               |  12 U12              |  11 U11              |    67.75
   11 U11              |   7 U7               |  14 O2               |   103.23
   12 U12              |   7 U7               |  14 O2               |   137.41
    3 U3               |   8 U8               |   4 U4               |    66.37
    8 U8               |   3 U3               |   6 U6               |    90.90
    8 U8               |   3 U3               |   7 U7               |    66.37
    3 U3               |   8 U8               |  11 U11              |    93.56
    3 U3               |   8 U8               |  12 U12              |   116.28
    4 U4               |   8 U8               |   6 U6               |    90.00
    8 U8               |   4 U4               |   7 U7               |    66.37
    4 U4               |   8 U8               |  11 U11              |   115.55
    4 U4               |   8 U8               |  12 U12              |    73.98
    8 U8               |   7 U7               |   6 U6               |    70.53
    8 U8               |  11 U11              |   6 U6               |    81.97
    6 U6               |   8 U8               |  12 U12              |    90.00
    7 U7               |   8 U8               |  11 U11              |    67.75
    8 U8               |   7 U7               |  12 U12              |    67.75
    8 U8               |  11 U11              |  12 U12              |    67.75
    9 U9               |   5 U5               |   1 U1               |    73.98
    9 U9               |   6 U6               |   1 U1               |    93.56
    1 U1               |   9 U9               |  10 U10              |    90.00
    1 U1               |   9 U9               |  11 U11              |    90.00
    9 U9               |   6 U6               |   5 U5               |    67.75
    9 U9               |  10 U10              |   5 U5               |    67.75
    5 U5               |   9 U9               |  11 U11              |    90.00
    6 U6               |   9 U9               |  10 U10              |    67.75
    9 U9               |   6 U6               |  11 U11              |    81.97
    9 U9               |  10 U10              |  11 U11              |    70.53
   10 U10              |   5 U5               |   2 U2               |    93.56
   10 U10              |   6 U6               |   2 U2               |    73.98
   10 U10              |   7 U7               |   2 U2               |    93.56
    2 U2               |  10 U10              |   9 U9               |    90.00
    2 U2               |  10 U10              |  11 U11              |    90.00
    2 U2               |  10 U10              |  12 U12              |    90.00
   10 U10              |   5 U5               |   6 U6               |    67.75
    5 U5               |  10 U10              |   7 U7               |    81.97
    5 U5               |  10 U10              |   9 U9               |    67.75
    5 U5               |  10 U10              |  11 U11              |   112.25
    5 U5               |  10 U10              |  12 U12              |   130.99
   10 U10              |   7 U7               |   6 U6               |    67.75
   10 U10              |   9 U9               |   6 U6               |    67.75
   10 U10              |  11 U11              |   6 U6               |    67.75
    6 U6               |  10 U10              |  12 U12              |    90.00
    7 U7               |  10 U10              |   9 U9               |   112.25
    7 U7               |  10 U10              |  11 U11              |    67.75
   10 U10              |   7 U7               |  12 U12              |    81.97
    9 U9               |  10 U10              |  11 U11              |    70.53
    9 U9               |  10 U10              |  12 U12              |   125.26
   10 U10              |  11 U11              |  12 U12              |    70.53
   11 U11              |   6 U6               |   3 U3               |    93.56
   11 U11              |   7 U7               |   3 U3               |    73.98
   11 U11              |   8 U8               |   3 U3               |    93.56
    3 U3               |  11 U11              |   9 U9               |    90.00
    3 U3               |  11 U11              |  10 U10              |    90.00
    3 U3               |  11 U11              |  12 U12              |    90.00
   11 U11              |   6 U6               |   7 U7               |    67.75
    6 U6               |  11 U11              |   8 U8               |    81.97
   11 U11              |   6 U6               |   9 U9               |    81.97
    6 U6               |  11 U11              |  10 U10              |    67.75
    6 U6               |  11 U11              |  12 U12              |   112.25
   11 U11              |   8 U8               |   7 U7               |    67.75
    7 U7               |  11 U11              |   9 U9               |    90.00
   11 U11              |  10 U10              |   7 U7               |    67.75
   11 U11              |  12 U12              |   7 U7               |    67.75
    8 U8               |  11 U11              |   9 U9               |   130.99
    8 U8               |  11 U11              |  10 U10              |   112.25
    8 U8               |  11 U11              |  12 U12              |    67.75
   11 U11              |  10 U10              |   9 U9               |    70.53
    9 U9               |  11 U11              |  12 U12              |   125.26
   10 U10              |  11 U11              |  12 U12              |    70.53
   12 U12              |   7 U7               |   4 U4               |    93.56
   12 U12              |   8 U8               |   4 U4               |    73.98
    4 U4               |  12 U12              |  10 U10              |    90.00
    4 U4               |  12 U12              |  11 U11              |    90.00
   12 U12              |   7 U7               |   8 U8               |    67.75
   12 U12              |   7 U7               |  10 U10              |    81.97
    7 U7               |  12 U12              |  11 U11              |    67.75
    8 U8               |  12 U12              |  10 U10              |    90.00
   12 U12              |  11 U11              |   8 U8               |    67.75
   12 U12              |  11 U11              |  10 U10              |    70.53
    1 U1               |  13 O1               |   2 U2               |    94.83
    1 U1               |  13 O1               |   3 U3               |    98.42
   13 O1               |   1 U1               |   6 U6               |    70.17
    1 U1               |  13 O1               |  14 O2               |   143.43
    2 U2               |  13 O1               |   3 U3               |   112.61
    2 U2               |  13 O1               |   6 U6               |    81.20
    2 U2               |  13 O1               |  14 O2               |    99.87
   13 O1               |   3 U3               |   6 U6               |    76.87
   13 O1               |  14 O2               |   3 U3               |    99.87
    6 U6               |  13 O1               |  14 O2               |    95.22
    2 U2               |  14 O2               |   3 U3               |   112.61
    2 U2               |  14 O2               |   4 U4               |    98.42
   14 O2               |   2 U2               |   7 U7               |    76.87
   14 O2               |  13 O1               |   2 U2               |    99.87
    3 U3               |  14 O2               |   4 U4               |    94.83
    3 U3               |  14 O2               |   7 U7               |    81.20
    3 U3               |  14 O2               |  13 O1               |    99.87
   14 O2               |   4 U4               |   7 U7               |    70.17
    4 U4               |  14 O2               |  13 O1               |   143.43
    7 U7               |  14 O2               |  13 O1               |    95.22
 ------------------------------------------------------------------------------
                            number of included internuclear angles:        304
 ==============================================================================



 fixed atoms                  :   1     2     3     4
                                  5     6     7     8
                                  9    10    11    12


 no springs found
                         NWChem Constraints Module
                         -------------------------
 General Information
 -------------------
 fixed atoms                  :   1     2     3     4
                                  5     6     7     8
                                  9    10    11    12


 no springs found
 no springs found


                           NWChem Geometry Optimization
                           ----------------------------




                          Gamma-uranium (100) adsorption


 maximum gradient threshold         (gmax) =   0.004500
 rms gradient threshold             (grms) =   0.003000
 maximum cartesian step threshold   (xmax) =   0.018000
 rms cartesian step threshold       (xrms) =   0.012000
 fixed trust radius                (trust) =   0.300000
 maximum step size to saddle      (sadstp) =   0.100000
 energy precision                  (eprec) =   1.0D-07
 maximum number of steps          (nptopt) =   80
 initial hessian option           (inhess) =    0
 line search option               (linopt) =    0
 hessian update option            (modupd) =    1
 saddle point option              (modsad) =    0
 initial eigen-mode to follow     (moddir) =    0
 initial variable to follow       (vardir) =    0
 follow first negative mode     (firstneg) =    T
 apply conjugacy                    (opcg) =    F
 source of zmatrix                         =           


          -------------------
          Energy Minimization
          -------------------


 Using diagonal initial Hessian 

          --------
          Step   0
          --------


                         Geometry "geometry" -> "geometry"
                         ---------------------------------

 Output coordinates in angstroms (scale by  1.889725989 to convert to a.u.)

  No.       Tag          Charge          X              Y              Z
 ---- ---------------- ---------- -------------- -------------- --------------
    1 U1                  92.0000     0.00000000     0.00000000    14.53780460
    2 U2                  92.0000     1.72000000     2.43250000    14.53780460
    3 U3                  92.0000     3.44000000     0.00000000    14.53780460
    4 U4                  92.0000     5.16000000     2.43250000    14.53780460
    5 U5                  92.0000     0.00000000     2.43250000    12.84460300
    6 U6                  92.0000     1.72000000     0.00000000    12.84460300
    7 U7                  92.0000     3.44000000     2.43250000    12.84460300
    8 U8                  92.0000     5.16000000     0.00000000    12.84460300
    9 U9                  92.0000     0.00000000     0.00000000    10.86500000
   10 U10                 92.0000     1.72000000     2.43250000    10.86500000
   11 U11                 92.0000     3.44000000     0.00000000    10.86500000
   12 U12                 92.0000     5.16000000     2.43250000    10.86500000
   13 O1                   8.0000     1.97497280     1.21625000    15.35506990
   14 O2                   8.0000     3.18502720     1.21625000    15.35506990

      Lattice Parameters 
      ------------------ 

      lattice vectors in angstroms (scale by  1.889725989 to convert to a.u.)

      a1=<   6.880   0.000   0.000 >
      a2=<   0.000   4.865   0.000 >
      a3=<   0.000   0.000  21.730 >
      a=       6.880 b=      4.865 c=      21.730
      alpha=  90.000 beta=  90.000 gamma=  90.000
      omega=   727.3

      reciprocal lattice vectors in a.u.

      b1=<   0.483   0.000  -0.000 >
      b2=<  -0.000   0.683  -0.000 >
      b3=<   0.000   0.000   0.153 >

      Atomic Mass 
      ----------- 

      U1               238.050800
      U2               238.050800
      U3               238.050800
      U4               238.050800
      U5               238.050800
      U6               238.050800
      U7               238.050800
      U8               238.050800
      U9               238.050800
      U10              238.050800
      U11              238.050800
      U12              238.050800
      O1                15.994910
      O2                15.994910


          **********************************************************
          *                                                        *
          *                   NWPW BAND Calculation                *
          *                                                        *
          *  [(bundled Grassman/Stiefel manifold implementation)]  *
          *                                                        *
          *         [ NorthWest Chemistry implementation ]         *
          *                                                        *
          *                version #1.10   01/31/03                *
          *                                                        *
          *  A pseudopotential plane-wave band structure program   *
          *  with Brillouin zone sampling for optimizing crystals, *
          *  slabs, and polymers.  Developed by Eric J. Bylaska    *
          *  , Edoardo Apra, and Patrick Nichols.                  *
          *                                                        *
          **********************************************************
     >>>  JOB STARTED       AT Sat Apr  6 13:42:05 2013  <<<
          ================ input data ========================
  library name resolved from: environment
  NWCHEM_NWPW_LIBRARY set to: </home/davis68/nwchem/nwchem-6.1/src/nwpw/libraryps/>
 Generating 1d pseudopotential for U   

 Generated formatted_filename: ./perm/U.cpp
 - Spline fitted, nray=19114 -
 - filtered -
  library name resolved from: environment
  NWCHEM_NWPW_LIBRARY set to: </home/davis68/nwchem/nwchem-6.1/src/nwpw/libraryps/>
 Generating 1d pseudopotential for O   

 Generated formatted_filename: ./perm/O.cpp
 - Spline fitted, nray=19114 -
 - filtered -
 random planewave guess, initial psi:U8O2_3-110-opt.movecs                             
 -   spin, nalpha, nbeta:                    2                   91                   89

 input psi filename:./perm/U8O2_3-110-opt.movecs
Warning - Orthogonalization performed, spin,zone: 1   1
        - error(before)=  0.882728E+01 (  0.821727E+02)
        - error(after)=   0.000000E+00 (  0.910000E+02)
Warning - Orthogonalization performed, spin,zone: 2   1
        - error(before)=  0.863617E+01 (  0.803638E+02)
        - error(after)=   0.142109E-13 (  0.890000E+02)
Warning - Orthogonalization performed, spin,zone: 1   2
        - error(before)=  0.883027E+01 (  0.821697E+02)
        - error(after)=   0.426326E-13 (  0.910000E+02)
Warning - Orthogonalization performed, spin,zone: 2   2
        - error(before)=  0.863669E+01 (  0.803633E+02)
        - error(after)=   0.142109E-13 (  0.890000E+02)
Warning - Orthogonalization performed, spin,zone: 1   3
        - error(before)=  0.882753E+01 (  0.821725E+02)
        - error(after)=   0.142109E-13 (  0.910000E+02)
Warning - Orthogonalization performed, spin,zone: 2   3
        - error(before)=  0.863613E+01 (  0.803639E+02)
        - error(after)=   0.000000E+00 (  0.890000E+02)
Warning - Orthogonalization performed, spin,zone: 1   4
        - error(before)=  0.883041E+01 (  0.821696E+02)
        - error(after)=   0.000000E+00 (  0.910000E+02)
Warning - Orthogonalization performed, spin,zone: 2   4
        - error(before)=  0.863786E+01 (  0.803621E+02)
        - error(after)=   0.284217E-13 (  0.890000E+02)
Warning - Orthogonalization performed, spin,zone: 1   5
        - error(before)=  0.882627E+01 (  0.821737E+02)
        - error(after)=   0.284217E-13 (  0.910000E+02)
Warning - Orthogonalization performed, spin,zone: 2   5
        - error(before)=  0.863385E+01 (  0.803662E+02)
        - error(after)=   0.000000E+00 (  0.890000E+02)
Warning - Orthogonalization performed, spin,zone: 1   6
        - error(before)=  0.882834E+01 (  0.821717E+02)
        - error(after)=   0.000000E+00 (  0.910000E+02)
Warning - Orthogonalization performed, spin,zone: 2   6
        - error(before)=  0.863666E+01 (  0.803633E+02)
        - error(after)=   0.000000E+00 (  0.890000E+02)
Warning - Orthogonalization performed, spin,zone: 1   7
        - error(before)=  0.882689E+01 (  0.821731E+02)
        - error(after)=   0.000000E+00 (  0.910000E+02)
Warning - Orthogonalization performed, spin,zone: 2   7
        - error(before)=  0.863531E+01 (  0.803647E+02)
        - error(after)=   0.284217E-13 (  0.890000E+02)
Warning - Orthogonalization performed, spin,zone: 1   8
        - error(before)=  0.882714E+01 (  0.821729E+02)
        - error(after)=   0.000000E+00 (  0.910000E+02)
Warning - Orthogonalization performed, spin,zone: 2   8
        - error(before)=  0.863467E+01 (  0.803653E+02)
        - error(after)=   0.284217E-13 (  0.890000E+02)

 Fixed ion positions:    1    2    3    4    5    6    7    8    9   10
 Fixed ion positions:   11   12


 number of processors used:             288
 processor grid           :  36 x   1 x   8
 parallel mapping         :     2d  hilbert

 options:
      boundary conditions  = periodic    (version3)
      electron spin        = unrestricted
      exchange-correlation = PBE96 (White and Bird) parameterization

 elements involved in the cluster:
      1: U     core charge:14.0  lmax=3
             comment    : Parameterized (J.Chem. Phys. vol 128, 124507 (2008)) Troullier-Martins psp
             pseudpotential type            :   0
             highest angular component      :   3
             local potential used           :   0
             number of non-local projections:  15
             cutoff =   1.421   1.602   2.400   1.250
      2: O     core charge: 6.0  lmax=2
             comment    : Parameterized (Chem.Phys.Lett., vol 322, page 447) Hamman psp
             pseudpotential type            :   0
             highest angular component      :   2
             local potential used           :   2
             number of non-local projections:   4
             cutoff =   0.700   0.700   0.700

 total charge:   0.000

 atomic composition:
     U   : 12     O   :  2

 number of electrons: spin up=   91.00  spin down=   89.00 (fourier space)
 number of orbitals:  spin up=      91  spin down=      89 (fourier space)

 supercell:
      lattice:    a1=<  13.001   0.000   0.000 >
                  a2=<   0.000   9.194   0.000 >
                  a3=<   0.000   0.000  41.064 >
      reciprocal: b1=<   0.483   0.000  -0.000 >
                  b2=<  -0.000   0.683  -0.000 >
                  b3=<   0.000   0.000   0.153 >

      lattice:    a=  13.001    b=   9.194     c=  41.064
              alpha=  90.000 beta=  90.000 gamma=  90.000
      volume :     4908.3
      ewald summation: cut radius=    3.00  and  8
                        madelung=-0.10715872

 brillouin zone:
      number of zone points:     8
      weight=   0.125  ks=<   0.375   0.375   0.000 >, k=<   0.181   0.256  -0.000>
      weight=   0.125  ks=<   0.125   0.375   0.000 >, k=<   0.060   0.256  -0.000>
      weight=   0.125  ks=<  -0.125   0.375   0.000 >, k=<  -0.060   0.256  -0.000>
      weight=   0.125  ks=<   0.375  -0.375   0.000 >, k=<   0.181  -0.256   0.000>
      weight=   0.125  ks=<   0.375   0.125   0.000 >, k=<   0.181   0.085  -0.000>
      weight=   0.125  ks=<   0.125   0.125   0.000 >, k=<   0.060   0.085  -0.000>
      weight=   0.125  ks=<   0.125  -0.125   0.000 >, k=<   0.060  -0.085   0.000>
      weight=   0.125  ks=<   0.375  -0.125   0.000 >, k=<   0.181  -0.085  -0.000>

 computational grids:
      density     cutoff=117.061  fft=  64x  48x 200(   297005 waves     8250 per task)
      wavefnc   1 cutoff= 90.000  fft=  64x  48x 200(   200071 waves     5557 per task)
      wavefnc   2 cutoff= 90.000  fft=  64x  48x 200(   200127 waves     5559 per task)
      wavefnc   3 cutoff= 90.000  fft=  64x  48x 200(   200127 waves     5559 per task)
      wavefnc   4 cutoff= 90.000  fft=  64x  48x 200(   200071 waves     5557 per task)
      wavefnc   5 cutoff= 90.000  fft=  64x  48x 200(   200199 waves     5561 per task)
      wavefnc   6 cutoff= 90.000  fft=  64x  48x 200(   200160 waves     5560 per task)
      wavefnc   7 cutoff= 90.000  fft=  64x  48x 200(   200160 waves     5560 per task)
      wavefnc   8 cutoff= 90.000  fft=  64x  48x 200(   200199 waves     5561 per task)

 technical parameters:
      time step=      5.80     ficticious mass=  400000.0
      tolerance=.100E-06 (energy)   0.100E-06 (density)
      maximum iterations =      3000 (   10 inner    300 outer )



= energy calculation =


          ======== bundled Grassmann lmbfgs iteration ========
     >>>  ITERATION STARTED AT Sat Apr  6 13:43:43 2013  <<<
    iter.           Energy         DeltaE       DeltaRho 
    ------------------------------------------------------
     -  10 steepest descent iterations performed
      10   -0.6016388535E+03   -0.77718E+01    0.16501E+02
     -  10 steepest descent iterations performed
      20   -0.6387787308E+03   -0.74863E+00    0.15039E+00
     -  10 steepest descent iterations performed
      30   -0.6433480197E+03   -0.26947E+00    0.26596E-01
     -  10 steepest descent iterations performed
      40   -0.6448146981E+03   -0.76528E-01    0.84750E-02
     -  10 steepest descent iterations performed
      50   -0.6454689273E+03   -0.38338E-01    0.37086E-02
     -  10 steepest descent iterations performed
      60   -0.6458253724E+03   -0.21961E-01    0.19361E-02
     -  10 steepest descent iterations performed
      70   -0.6460336675E+03   -0.12633E-01    0.11277E-02
     -  10 steepest descent iterations performed
      80   -0.6461662794E+03   -0.83665E-02    0.80699E-03
      90   -0.6463606152E+03   -0.50306E-02    0.41925E-02
     100   -0.6463992837E+03   -0.48223E-02    0.37452E-03
     110   -0.6464572004E+03   -0.32879E-02    0.17792E-02
     120   -0.6464885387E+03   -0.16656E-02    0.76884E-03
     130   -0.6465124839E+03   -0.36277E-02    0.11881E-02
     -  10 steepest descent iterations performed
     140   -0.6465355402E+03   -0.11389E-02    0.16171E-03
     150   -0.6465582389E+03   -0.29116E-02    0.10804E-02
     -  10 steepest descent iterations performed
     160   -0.6465710291E+03   -0.65738E-03    0.17090E-03
     170   -0.6465809557E+03   -0.11718E-02    0.72337E-03
     -  10 steepest descent iterations performed
     180   -0.6465903132E+03   -0.41139E-03    0.10808E-03
     190   -0.6465971335E+03   -0.80338E-03    0.42869E-03
     -  10 steepest descent iterations performed
     200   -0.6466046386E+03   -0.41526E-03    0.16203E-03
     210   -0.6466097662E+03   -0.55698E-03    0.38708E-03
     -  10 steepest descent iterations performed
     220   -0.6466160651E+03   -0.32258E-03    0.13620E-03
     230   -0.6466205666E+03   -0.69058E-03    0.35306E-03
     -  10 steepest descent iterations performed
     240   -0.6466262114E+03   -0.33562E-03    0.16964E-03
     250   -0.6466295855E+03   -0.33049E-03    0.26195E-03
     260   -0.6466430884E+03   -0.58555E-03    0.39953E-02
     -  10 steepest descent iterations performed
     270   -0.6466486826E+03   -0.23354E-03    0.12842E-03
     280   -0.6466503837E+03   -0.16634E-03    0.96257E-04
     290   -0.6466533122E+03   -0.26102E-03    0.45150E-03
     -  10 steepest descent iterations performed
     300   -0.6466559383E+03   -0.14775E-03    0.45882E-04
     310   -0.6466577298E+03   -0.17574E-03    0.14196E-03
     -  10 steepest descent iterations performed
     320   -0.6466596047E+03   -0.14428E-03    0.62839E-04
     330   -0.6466613503E+03   -0.18716E-03    0.24391E-03
     -  10 steepest descent iterations performed
     340   -0.6466634801E+03   -0.12752E-03    0.61633E-04
     350   -0.6466646201E+03   -0.11375E-03    0.10195E-03
     360   -0.6466687816E+03   -0.33955E-03    0.20802E-02
     -  10 steepest descent iterations performed
     370   -0.6466726332E+03   -0.11783E-03    0.48098E-04
     380   -0.6466738280E+03   -0.14549E-03    0.91579E-04
     -  10 steepest descent iterations performed
     390   -0.6466753118E+03   -0.17391E-03    0.11547E-03
     -  10 steepest descent iterations performed
     400   -0.6466766010E+03   -0.11593E-03    0.52709E-04
     410   -0.6466794060E+03   -0.21899E-03    0.93197E-03
     -  10 steepest descent iterations performed
     420   -0.6466818433E+03   -0.75753E-04    0.24173E-04
     430   -0.6466823936E+03   -0.46620E-04    0.19839E-04
     440   -0.6466837511E+03   -0.21478E-03    0.27518E-03
     -  10 steepest descent iterations performed
     450   -0.6466850203E+03   -0.43768E-04    0.17282E-04
     460   -0.6466854620E+03   -0.59115E-04    0.23317E-04
     -  10 steepest descent iterations performed
     470   -0.6466860834E+03   -0.77933E-04    0.27411E-04
     -  10 steepest descent iterations performed
     480   -0.6466865962E+03   -0.43766E-04    0.19731E-04
     490   -0.6466877273E+03   -0.17820E-03    0.34321E-03
     -  10 steepest descent iterations performed
     500   -0.6466888464E+03   -0.31566E-04    0.10927E-04
     510   -0.6466890894E+03   -0.29478E-04    0.95927E-05
     520   -0.6466898682E+03   -0.55400E-04    0.21477E-03
     -  10 steepest descent iterations performed
     530   -0.6466906795E+03   -0.19149E-04    0.10292E-04
     540   -0.6466909237E+03   -0.31232E-04    0.15873E-04
     -  10 steepest descent iterations performed
     550   -0.6466912707E+03   -0.45722E-04    0.18785E-04
     -  10 steepest descent iterations performed
     560   -0.6466915592E+03   -0.29311E-04    0.13682E-04
     570   -0.6466925145E+03   -0.83287E-04    0.52537E-03
     -  10 steepest descent iterations performed
     580   -0.6466933723E+03   -0.28038E-04    0.10375E-04
     590   -0.6466935056E+03   -0.10499E-04    0.40306E-05
     600   -0.6466938502E+03   -0.61002E-04    0.10302E-03
     -  10 steepest descent iterations performed
     610   -0.6466942175E+03   -0.98314E-05    0.48273E-05
     620   -0.6466944061E+03   -0.24686E-04    0.26082E-04
     -  10 steepest descent iterations performed
     630   -0.6466946288E+03   -0.19361E-04    0.86730E-05
     640   -0.6466948059E+03   -0.17665E-04    0.30521E-04
     650   -0.6466955882E+03   -0.62521E-04    0.79299E-03
     -  10 steepest descent iterations performed
     660   -0.6466962142E+03   -0.97021E-05    0.32679E-05
     670   -0.6466963110E+03   -0.68690E-05    0.34705E-05
     680   -0.6466963911E+03   -0.69503E-05    0.97567E-05
     -  10 steepest descent iterations performed
     690   -0.6466965117E+03   -0.10762E-04    0.53852E-05
     -  10 steepest descent iterations performed
     700   -0.6466966035E+03   -0.84530E-05    0.72382E-05
     710   -0.6466970173E+03   -0.67412E-04    0.45263E-03
     -  10 steepest descent iterations performed
     720   -0.6466974000E+03   -0.10895E-04    0.17050E-05
     730   -0.6466974537E+03   -0.51910E-05    0.23688E-05
     740   -0.6466975629E+03   -0.87257E-05    0.32902E-04
     -  10 steepest descent iterations performed
     750   -0.6466976912E+03   -0.61039E-05    0.39869E-05
     760   -0.6466977509E+03   -0.90094E-05    0.78241E-05
     -  10 steepest descent iterations performed
     770   -0.6466978408E+03   -0.62647E-05    0.61792E-05
     780   -0.6466979210E+03   -0.62857E-05    0.18944E-04
     -  10 steepest descent iterations performed
     790   -0.6466980393E+03   -0.66214E-05    0.52227E-05
     -  10 steepest descent iterations performed
     800   -0.6466981177E+03   -0.85485E-05    0.13713E-04
     -  10 steepest descent iterations performed
     810   -0.6466981889E+03   -0.39449E-05    0.25199E-05
     820   -0.6466983678E+03   -0.11984E-04    0.12697E-03
     -  10 steepest descent iterations performed
     830   -0.6466985471E+03   -0.56820E-05    0.36144E-05
     840   -0.6466985825E+03   -0.33571E-05    0.27407E-05
     850   -0.6466987862E+03   -0.48892E-04    0.21306E-03
     -  10 steepest descent iterations performed
     860   -0.6466989818E+03   -0.27121E-05    0.10352E-05
     870   -0.6466990167E+03   -0.41086E-05    0.31646E-05
     -  10 steepest descent iterations performed
     880   -0.6466990679E+03   -0.85229E-05    0.55381E-05
     -  10 steepest descent iterations performed
     890   -0.6466991133E+03   -0.28449E-05    0.24630E-05
     900   -0.6466992478E+03   -0.20046E-04    0.12126E-03
     -  10 steepest descent iterations performed
     910   -0.6466993758E+03   -0.24918E-05    0.71428E-06
     920   -0.6466993988E+03   -0.20566E-05    0.14582E-05
     930   -0.6466994906E+03   -0.94553E-05    0.62745E-04
     -  10 steepest descent iterations performed
     940   -0.6466995814E+03   -0.27204E-05    0.15495E-05
     950   -0.6466996020E+03   -0.25736E-05    0.16951E-05
     960   -0.6466996576E+03   -0.86325E-05    0.29035E-04
     -  10 steepest descent iterations performed
     970   -0.6466997201E+03   -0.11758E-05    0.65136E-06
     980   -0.6466997430E+03   -0.31150E-05    0.33910E-05
     -  10 steepest descent iterations performed
     990   -0.6466997737E+03   -0.31596E-05    0.23021E-05
     -  10 steepest descent iterations performed
    1000   -0.6466997995E+03   -0.21393E-05    0.24775E-05
    1010   -0.6466998665E+03   -0.60655E-05    0.54299E-04
     -  10 steepest descent iterations performed
    1020   -0.6466999350E+03   -0.20741E-05    0.59698E-06
    1030   -0.6466999483E+03   -0.15572E-05    0.89599E-06
    1040   -0.6466999772E+03   -0.33943E-05    0.10461E-04
     -  10 steepest descent iterations performed
    1050   -0.6467000120E+03   -0.98028E-06    0.86610E-06
    1060   -0.6467000290E+03   -0.19416E-05    0.30020E-05
     -  10 steepest descent iterations performed
    1070   -0.6467000531E+03   -0.21427E-05    0.16796E-05
     -  10 steepest descent iterations performed
    1080   -0.6467000727E+03   -0.17090E-05    0.25805E-05
    1090   -0.6467001182E+03   -0.39582E-05    0.35233E-04
     -  10 steepest descent iterations performed
    1100   -0.6467001689E+03   -0.18673E-05    0.69720E-06
    1110   -0.6467001781E+03   -0.99859E-06    0.51947E-06
    1120   -0.6467002035E+03   -0.33814E-05    0.11986E-04
     -  10 steepest descent iterations performed
    1130   -0.6467002326E+03   -0.92444E-06    0.46202E-06
    1140   -0.6467002478E+03   -0.15637E-05    0.31277E-05
     -  10 steepest descent iterations performed
    1150   -0.6467002665E+03   -0.14968E-05    0.10934E-05
    1160   -0.6467002813E+03   -0.22301E-05    0.35544E-05
     -  10 steepest descent iterations performed
    1170   -0.6467003034E+03   -0.14786E-05    0.10810E-05
    1180   -0.6467003132E+03   -0.88355E-06    0.14311E-05
    1190   -0.6467004474E+03   -0.86881E-05    0.44184E-03
     -  10 steepest descent iterations performed
    1200   -0.6467005648E+03   -0.10546E-05    0.25546E-06
    1210   -0.6467005753E+03   -0.11285E-05    0.58046E-06
     -  10 steepest descent iterations performed
    1220   -0.6467005875E+03   -0.16041E-05    0.13929E-05
     -  10 steepest descent iterations performed
    1230   -0.6467005987E+03   -0.59908E-06    0.44217E-06
    1240   -0.6467006363E+03   -0.72593E-05    0.33603E-04
     -  10 steepest descent iterations performed
    1250   -0.6467006758E+03   -0.11701E-05    0.23405E-06
    1260   -0.6467006838E+03   -0.86250E-06    0.57890E-06
    1270   -0.6467007080E+03   -0.18399E-05    0.11891E-04
     -  10 steepest descent iterations performed
    1280   -0.6467007360E+03   -0.96822E-06    0.48733E-06
    1290   -0.6467007449E+03   -0.91078E-06    0.70069E-06
    1300   -0.6467007707E+03   -0.54074E-05    0.14690E-04
     -  10 steepest descent iterations performed
    1310   -0.6467008014E+03   -0.10315E-05    0.26698E-06
    1320   -0.6467008116E+03   -0.11042E-05    0.99148E-06
     -  10 steepest descent iterations performed
    1330   -0.6467008253E+03   -0.13103E-05    0.99313E-06
     -  10 steepest descent iterations performed
    1340   -0.6467008370E+03   -0.74193E-06    0.71239E-06
    1350   -0.6467008815E+03   -0.74185E-05    0.41718E-04
     -  10 steepest descent iterations performed
    1360   -0.6467009282E+03   -0.12914E-05    0.22785E-06
    1370   -0.6467009370E+03   -0.89938E-06    0.42480E-06
    1380   -0.6467009582E+03   -0.28544E-05    0.74047E-05
     -  10 steepest descent iterations performed
    1390   -0.6467009827E+03   -0.67579E-06    0.43120E-06
    1400   -0.6467009934E+03   -0.10365E-05    0.11632E-05
     -  10 steepest descent iterations performed
    1410   -0.6467010087E+03   -0.10291E-05    0.96584E-06
    1420   -0.6467010242E+03   -0.28779E-05    0.37006E-05
     -  10 steepest descent iterations performed
    1430   -0.6467010460E+03   -0.99448E-06    0.59748E-06
    1440   -0.6467010540E+03   -0.65205E-06    0.63532E-06
    1450   -0.6467011978E+03   -0.20527E-04    0.41598E-03
     -  10 steepest descent iterations performed
    1460   -0.6467013134E+03   -0.12799E-05    0.47467E-06
    1470   -0.6467013222E+03   -0.42200E-06    0.17922E-06
    1480   -0.6467013292E+03   -0.98440E-06    0.67932E-06
     -  10 steepest descent iterations performed
    1490   -0.6467013391E+03   -0.82497E-06    0.34670E-06
    1500   -0.6467013479E+03   -0.87097E-06    0.12671E-05
     -  10 steepest descent iterations performed
    1510   -0.6467013599E+03   -0.61694E-06    0.28938E-06
    1520   -0.6467013651E+03   -0.63462E-06    0.43192E-06
     -  10 steepest descent iterations performed
    1530   -0.6467013743E+03   -0.95311E-06    0.41391E-06
     -  10 steepest descent iterations performed
    1540   -0.6467013816E+03   -0.81705E-06    0.47400E-06
    1550   -0.6467013990E+03   -0.24754E-05    0.75723E-05
     -  10 steepest descent iterations performed
    1560   -0.6467014180E+03   -0.58695E-06    0.14364E-06
    1570   -0.6467014213E+03   -0.31492E-06    0.13661E-06
    1580   -0.6467014376E+03   -0.15471E-05    0.77420E-05
     -  10 steepest descent iterations performed
    1590   -0.6467014542E+03   -0.37497E-06    0.15299E-06
    1600   -0.6467014575E+03   -0.44365E-06    0.18175E-06
     -  10 steepest descent iterations performed
    1610   -0.6467014627E+03   -0.42529E-06    0.29919E-06
    1620   -0.6467014729E+03   -0.10218E-05    0.35687E-05
     -  10 steepest descent iterations performed
    1630   -0.6467014845E+03   -0.52440E-06    0.13292E-06
    1640   -0.6467014869E+03   -0.21930E-06    0.97908E-07
    1650   -0.6467015012E+03   -0.22556E-05    0.85927E-05
     -  10 steepest descent iterations performed
    1660   -0.6467015146E+03   -0.28090E-06    0.64943E-07
    1670   -0.6467015173E+03   -0.23677E-06    0.10926E-06
    1680   -0.6467015223E+03   -0.60850E-06    0.11260E-05
     -  10 steepest descent iterations performed
    1690   -0.6467015283E+03   -0.32894E-06    0.78869E-07
    1700   -0.6467015308E+03   -0.27564E-06    0.18218E-06
    1710   -0.6467015378E+03   -0.10629E-05    0.26400E-05
     -  10 steepest descent iterations performed
    1720   -0.6467015454E+03   -0.21861E-06    0.45657E-07
    1730   -0.6467015478E+03   -0.20319E-06    0.11921E-06
    1740   -0.6467015510E+03   -0.37444E-06    0.59044E-06
     -  10 steepest descent iterations performed
    1750   -0.6467015553E+03   -0.22137E-06    0.57521E-07
    1760   -0.6467015574E+03   -0.20332E-06    0.15528E-06
    1770   -0.6467015621E+03   -0.54372E-06    0.15263E-05
     -  10 steepest descent iterations performed
    1780   -0.6467015676E+03   -0.19800E-06    0.37186E-07
    1790   -0.6467015694E+03   -0.18293E-06    0.87965E-07
    1800   -0.6467015718E+03   -0.31901E-06    0.37116E-06
     -  10 steepest descent iterations performed
    1810   -0.6467015750E+03   -0.17584E-06    0.47043E-07
    1820   -0.6467015767E+03   -0.17139E-06    0.12978E-06
    1830   -0.6467015804E+03   -0.41302E-06    0.10948E-05
     -  10 steepest descent iterations performed
    1840   -0.6467015847E+03   -0.16225E-06    0.30009E-07
    1850   -0.6467015862E+03   -0.15429E-06    0.70024E-07
    1860   -0.6467015881E+03   -0.23539E-06    0.27032E-06
     -  10 steepest descent iterations performed
    1870   -0.6467015907E+03   -0.14484E-06    0.39056E-07
    1880   -0.6467015921E+03   -0.14863E-06    0.10763E-06
     -  10 steepest descent iterations performed
    1890   -0.6467015941E+03   -0.18969E-06    0.86143E-07
     -  10 steepest descent iterations performed
    1900   -0.6467015947E+03   -0.77568E-07    0.22048E-08
  *** tolerance ok.    iteration terminated.
     >>>  ITERATION ENDED   AT Sun Apr  7 03:42:38 2013  <<<


          =============  summary of results  =================

 number of electrons: spin up=   91.00000  down=   89.00000 (real space)

 total     energy    :  -0.6467015947E+03 (   -0.46193E+02/ion)
 total orbital energy:  -0.5897953214E+02 (   -0.32766E+00/electron)
 hartree   energy    :   0.3135193570E+04 (    0.17418E+02/electron)
 exc-corr  energy    :  -0.8760992832E+02 (   -0.48672E+00/electron)
 ion-ion   energy    :   0.2520840374E+04 (    0.18006E+03/ion)

 K.S. kinetic energy :   0.3180488567E+03 (    0.17669E+01/electron)
 K.S. V_l  energy    :  -0.8037651817E+03 (   -0.44654E+01/electron)
 K.S. V_nl energy    :  -0.1022614593E+03 (   -0.56812E+00/electron)
 K.S. V_Hart energy  :   0.6270387140E+04 (    0.34835E+02/electron)
 K.S. V_xc energy    :  -0.1142410616E+03 (   -0.63467E+00/electron)
 K.S. V_so energy    :   0.0000000000E+00 (    0.00000E+00/electron)
 Virial Coefficient  :   0.1650727342E+02

 Brillouin zone point:      1
    weight=  0.125000
    k     =<   0.375   0.375   0.000> . <b1,b2,b3> 
          =<   0.181   0.256  -0.000>

 orbital energies:
     0.2240628E+00 (   6.097eV) occ=1.000
     0.2195868E+00 (   5.975eV) occ=1.000
     0.2161281E+00 (   5.881eV) occ=1.000     0.2244365E+00 (   6.107eV) occ=1.000
     0.2143180E+00 (   5.832eV) occ=1.000     0.2205414E+00 (   6.001eV) occ=1.000
     0.2115845E+00 (   5.758eV) occ=1.000     0.2172811E+00 (   5.913eV) occ=1.000
     0.2100894E+00 (   5.717eV) occ=1.000     0.2156032E+00 (   5.867eV) occ=1.000
     0.2074153E+00 (   5.644eV) occ=1.000     0.2133882E+00 (   5.807eV) occ=1.000
     0.2061536E+00 (   5.610eV) occ=1.000     0.2095562E+00 (   5.702eV) occ=1.000
     0.2031134E+00 (   5.527eV) occ=1.000     0.2085044E+00 (   5.674eV) occ=1.000
     0.2009642E+00 (   5.469eV) occ=1.000     0.2067751E+00 (   5.627eV) occ=1.000
     0.1970631E+00 (   5.362eV) occ=1.000     0.2008945E+00 (   5.467eV) occ=1.000
     0.1948965E+00 (   5.303eV) occ=1.000     0.1968479E+00 (   5.357eV) occ=1.000
     0.1905431E+00 (   5.185eV) occ=1.000     0.1923403E+00 (   5.234eV) occ=1.000
     0.1876593E+00 (   5.107eV) occ=1.000     0.1900501E+00 (   5.172eV) occ=1.000
     0.1867724E+00 (   5.082eV) occ=1.000     0.1848244E+00 (   5.029eV) occ=1.000
     0.1829304E+00 (   4.978eV) occ=1.000     0.1827160E+00 (   4.972eV) occ=1.000
     0.1802599E+00 (   4.905eV) occ=1.000     0.1799250E+00 (   4.896eV) occ=1.000
     0.1762909E+00 (   4.797eV) occ=1.000     0.1790116E+00 (   4.871eV) occ=1.000
     0.1724055E+00 (   4.691eV) occ=1.000     0.1734235E+00 (   4.719eV) occ=1.000
     0.1714245E+00 (   4.665eV) occ=1.000     0.1667697E+00 (   4.538eV) occ=1.000
     0.1650801E+00 (   4.492eV) occ=1.000     0.1659970E+00 (   4.517eV) occ=1.000
     0.1599345E+00 (   4.352eV) occ=1.000     0.1586901E+00 (   4.318eV) occ=1.000
     0.1515227E+00 (   4.123eV) occ=1.000     0.1532189E+00 (   4.169eV) occ=1.000
     0.1455558E+00 (   3.961eV) occ=1.000     0.1428292E+00 (   3.887eV) occ=1.000
     0.1390411E+00 (   3.784eV) occ=1.000     0.1382769E+00 (   3.763eV) occ=1.000
     0.1320371E+00 (   3.593eV) occ=1.000     0.1330597E+00 (   3.621eV) occ=1.000
     0.1286660E+00 (   3.501eV) occ=1.000     0.1310173E+00 (   3.565eV) occ=1.000
     0.1214494E+00 (   3.305eV) occ=1.000     0.1224706E+00 (   3.333eV) occ=1.000
     0.1178331E+00 (   3.206eV) occ=1.000     0.1205448E+00 (   3.280eV) occ=1.000
     0.1115026E+00 (   3.034eV) occ=1.000     0.1130712E+00 (   3.077eV) occ=1.000
     0.1070939E+00 (   2.914eV) occ=1.000     0.1092812E+00 (   2.974eV) occ=1.000
     0.1026854E+00 (   2.794eV) occ=1.000     0.1051184E+00 (   2.860eV) occ=1.000
     0.9569006E-01 (   2.604eV) occ=1.000     0.9585422E-01 (   2.608eV) occ=1.000
     0.8292669E-01 (   2.257eV) occ=1.000     0.8515620E-01 (   2.317eV) occ=1.000
     0.7880783E-01 (   2.144eV) occ=1.000     0.8324683E-01 (   2.265eV) occ=1.000
     0.7507003E-01 (   2.043eV) occ=1.000     0.7657591E-01 (   2.084eV) occ=1.000
    -0.4940749E-01 (  -1.344eV) occ=1.000    -0.5717445E-01 (  -1.556eV) occ=1.000
    -0.5748969E-01 (  -1.564eV) occ=1.000    -0.6734477E-01 (  -1.833eV) occ=1.000
    -0.1117158E+00 (  -3.040eV) occ=1.000    -0.1191919E+00 (  -3.243eV) occ=1.000
    -0.1804314E+00 (  -4.910eV) occ=1.000    -0.1827242E+00 (  -4.972eV) occ=1.000
    -0.2363417E+00 (  -6.431eV) occ=1.000    -0.2395831E+00 (  -6.519eV) occ=1.000
    -0.2862156E+00 (  -7.788eV) occ=1.000    -0.2915000E+00 (  -7.932eV) occ=1.000
    -0.2999312E+00 (  -8.162eV) occ=1.000    -0.2973844E+00 (  -8.092eV) occ=1.000
    -0.3200357E+00 (  -8.709eV) occ=1.000    -0.3026284E+00 (  -8.235eV) occ=1.000
    -0.3208324E+00 (  -8.730eV) occ=1.000    -0.3085598E+00 (  -8.396eV) occ=1.000
    -0.3333605E+00 (  -9.071eV) occ=1.000    -0.3217797E+00 (  -8.756eV) occ=1.000
    -0.3371857E+00 (  -9.175eV) occ=1.000    -0.3303918E+00 (  -8.990eV) occ=1.000
    -0.3499033E+00 (  -9.521eV) occ=1.000    -0.3625576E+00 (  -9.866eV) occ=1.000
    -0.3583698E+00 (  -9.752eV) occ=1.000    -0.3643534E+00 (  -9.915eV) occ=1.000
    -0.3775861E+00 ( -10.275eV) occ=1.000    -0.3818962E+00 ( -10.392eV) occ=1.000
    -0.3819590E+00 ( -10.394eV) occ=1.000    -0.3828929E+00 ( -10.419eV) occ=1.000
    -0.4007777E+00 ( -10.906eV) occ=1.000    -0.3885987E+00 ( -10.574eV) occ=1.000
    -0.4021785E+00 ( -10.944eV) occ=1.000    -0.3998248E+00 ( -10.880eV) occ=1.000
    -0.4083441E+00 ( -11.112eV) occ=1.000    -0.4036067E+00 ( -10.983eV) occ=1.000
    -0.4185887E+00 ( -11.390eV) occ=1.000    -0.4100790E+00 ( -11.159eV) occ=1.000
    -0.4237171E+00 ( -11.530eV) occ=1.000    -0.4192654E+00 ( -11.409eV) occ=1.000
    -0.4334391E+00 ( -11.795eV) occ=1.000    -0.4205314E+00 ( -11.443eV) occ=1.000
    -0.4417640E+00 ( -12.021eV) occ=1.000    -0.4332705E+00 ( -11.790eV) occ=1.000
    -0.4483738E+00 ( -12.201eV) occ=1.000    -0.4392210E+00 ( -11.952eV) occ=1.000
    -0.4526536E+00 ( -12.317eV) occ=1.000    -0.4497891E+00 ( -12.239eV) occ=1.000
    -0.4727943E+00 ( -12.865eV) occ=1.000    -0.4605584E+00 ( -12.533eV) occ=1.000
    -0.4747195E+00 ( -12.918eV) occ=1.000    -0.4702071E+00 ( -12.795eV) occ=1.000
    -0.4788023E+00 ( -13.029eV) occ=1.000    -0.4788224E+00 ( -13.030eV) occ=1.000
    -0.4888395E+00 ( -13.302eV) occ=1.000    -0.4839711E+00 ( -13.170eV) occ=1.000
    -0.4976863E+00 ( -13.543eV) occ=1.000    -0.4940920E+00 ( -13.445eV) occ=1.000
    -0.5070746E+00 ( -13.798eV) occ=1.000    -0.5033296E+00 ( -13.696eV) occ=1.000
    -0.5201527E+00 ( -14.154eV) occ=1.000    -0.5145619E+00 ( -14.002eV) occ=1.000
    -0.5355197E+00 ( -14.572eV) occ=1.000    -0.5419546E+00 ( -14.747eV) occ=1.000
    -0.5610811E+00 ( -15.268eV) occ=1.000    -0.5602620E+00 ( -15.246eV) occ=1.000
    -0.5676147E+00 ( -15.446eV) occ=1.000    -0.5679846E+00 ( -15.456eV) occ=1.000
    -0.5780887E+00 ( -15.731eV) occ=1.000    -0.5813668E+00 ( -15.820eV) occ=1.000
    -0.5961568E+00 ( -16.222eV) occ=1.000    -0.5858311E+00 ( -15.941eV) occ=1.000
    -0.5999604E+00 ( -16.326eV) occ=1.000    -0.5934565E+00 ( -16.149eV) occ=1.000
    -0.6017889E+00 ( -16.376eV) occ=1.000    -0.6024458E+00 ( -16.394eV) occ=1.000
    -0.6182758E+00 ( -16.824eV) occ=1.000    -0.6069121E+00 ( -16.515eV) occ=1.000
    -0.6192414E+00 ( -16.851eV) occ=1.000    -0.6225969E+00 ( -16.942eV) occ=1.000
    -0.6374091E+00 ( -17.345eV) occ=1.000    -0.6391861E+00 ( -17.393eV) occ=1.000
    -0.7985307E+00 ( -21.729eV) occ=1.000    -0.8065456E+00 ( -21.947eV) occ=1.000
    -0.1031031E+01 ( -28.056eV) occ=1.000    -0.1039915E+01 ( -28.298eV) occ=1.000
    -0.1289293E+01 ( -35.084eV) occ=1.000    -0.1287016E+01 ( -35.022eV) occ=1.000
    -0.1292914E+01 ( -35.182eV) occ=1.000    -0.1289548E+01 ( -35.091eV) occ=1.000
    -0.1316075E+01 ( -35.812eV) occ=1.000    -0.1294742E+01 ( -35.232eV) occ=1.000
    -0.1321666E+01 ( -35.965eV) occ=1.000    -0.1298798E+01 ( -35.342eV) occ=1.000
    -0.1340693E+01 ( -36.482eV) occ=1.000    -0.1338936E+01 ( -36.435eV) occ=1.000
    -0.1343007E+01 ( -36.545eV) occ=1.000    -0.1343453E+01 ( -36.558eV) occ=1.000
    -0.1370869E+01 ( -37.304eV) occ=1.000    -0.1357248E+01 ( -36.933eV) occ=1.000
    -0.1376980E+01 ( -37.470eV) occ=1.000    -0.1361266E+01 ( -37.042eV) occ=1.000
    -0.1391359E+01 ( -37.861eV) occ=1.000    -0.1377642E+01 ( -37.488eV) occ=1.000
    -0.1398753E+01 ( -38.062eV) occ=1.000    -0.1388222E+01 ( -37.776eV) occ=1.000
    -0.1405149E+01 ( -38.236eV) occ=1.000    -0.1426426E+01 ( -38.815eV) occ=1.000
    -0.1441445E+01 ( -39.224eV) occ=1.000    -0.1460552E+01 ( -39.744eV) occ=1.000

 Brillouin zone point:      2
    weight=  0.125000
    k     =<   0.125   0.375   0.000> . <b1,b2,b3> 
          =<   0.060   0.256  -0.000>

 orbital energies:
     0.2204405E+00 (   5.999eV) occ=1.000
     0.2164673E+00 (   5.890eV) occ=1.000
     0.2151448E+00 (   5.854eV) occ=1.000     0.2193495E+00 (   5.969eV) occ=1.000
     0.2118529E+00 (   5.765eV) occ=1.000     0.2176376E+00 (   5.922eV) occ=1.000
     0.2106481E+00 (   5.732eV) occ=1.000     0.2164430E+00 (   5.890eV) occ=1.000
     0.2065574E+00 (   5.621eV) occ=1.000     0.2128863E+00 (   5.793eV) occ=1.000
     0.2046512E+00 (   5.569eV) occ=1.000     0.2089591E+00 (   5.686eV) occ=1.000
     0.1999306E+00 (   5.440eV) occ=1.000     0.2041645E+00 (   5.556eV) occ=1.000
     0.1992577E+00 (   5.422eV) occ=1.000     0.2020917E+00 (   5.499eV) occ=1.000
     0.1972426E+00 (   5.367eV) occ=1.000     0.1986030E+00 (   5.404eV) occ=1.000
     0.1944121E+00 (   5.290eV) occ=1.000     0.1964717E+00 (   5.346eV) occ=1.000
     0.1936210E+00 (   5.269eV) occ=1.000     0.1923716E+00 (   5.235eV) occ=1.000
     0.1907727E+00 (   5.191eV) occ=1.000     0.1905983E+00 (   5.186eV) occ=1.000
     0.1865449E+00 (   5.076eV) occ=1.000     0.1881693E+00 (   5.120eV) occ=1.000
     0.1835075E+00 (   4.994eV) occ=1.000     0.1842766E+00 (   5.014eV) occ=1.000
     0.1833684E+00 (   4.990eV) occ=1.000     0.1827527E+00 (   4.973eV) occ=1.000
     0.1797420E+00 (   4.891eV) occ=1.000     0.1816796E+00 (   4.944eV) occ=1.000
     0.1742277E+00 (   4.741eV) occ=1.000     0.1756563E+00 (   4.780eV) occ=1.000
     0.1713842E+00 (   4.664eV) occ=1.000     0.1710167E+00 (   4.654eV) occ=1.000
     0.1690778E+00 (   4.601eV) occ=1.000     0.1705609E+00 (   4.641eV) occ=1.000
     0.1636378E+00 (   4.453eV) occ=1.000     0.1683667E+00 (   4.582eV) occ=1.000
     0.1598845E+00 (   4.351eV) occ=1.000     0.1625128E+00 (   4.422eV) occ=1.000
     0.1552005E+00 (   4.223eV) occ=1.000     0.1571548E+00 (   4.276eV) occ=1.000
     0.1493388E+00 (   4.064eV) occ=1.000     0.1496516E+00 (   4.072eV) occ=1.000
     0.1421979E+00 (   3.869eV) occ=1.000     0.1436103E+00 (   3.908eV) occ=1.000
     0.1402245E+00 (   3.816eV) occ=1.000     0.1397866E+00 (   3.804eV) occ=1.000
     0.1344595E+00 (   3.659eV) occ=1.000     0.1372495E+00 (   3.735eV) occ=1.000
     0.1308316E+00 (   3.560eV) occ=1.000     0.1291977E+00 (   3.516eV) occ=1.000
     0.1285015E+00 (   3.497eV) occ=1.000     0.1229787E+00 (   3.346eV) occ=1.000
     0.1169753E+00 (   3.183eV) occ=1.000     0.1202393E+00 (   3.272eV) occ=1.000
     0.1079777E+00 (   2.938eV) occ=1.000     0.1118687E+00 (   3.044eV) occ=1.000
     0.9729861E-01 (   2.648eV) occ=1.000     0.1009915E+00 (   2.748eV) occ=1.000
     0.8919128E-01 (   2.427eV) occ=1.000     0.9185350E-01 (   2.499eV) occ=1.000
     0.8441026E-01 (   2.297eV) occ=1.000     0.8558042E-01 (   2.329eV) occ=1.000
     0.8053724E-01 (   2.192eV) occ=1.000     0.8166536E-01 (   2.222eV) occ=1.000
     0.6496995E-01 (   1.768eV) occ=1.000     0.6601400E-01 (   1.796eV) occ=1.000
    -0.4727015E-01 (  -1.286eV) occ=1.000    -0.5547569E-01 (  -1.510eV) occ=1.000
    -0.6215684E-01 (  -1.691eV) occ=1.000    -0.7097752E-01 (  -1.931eV) occ=1.000
    -0.1101407E+00 (  -2.997eV) occ=1.000    -0.1174174E+00 (  -3.195eV) occ=1.000
    -0.1768228E+00 (  -4.812eV) occ=1.000    -0.1788090E+00 (  -4.866eV) occ=1.000
    -0.2396327E+00 (  -6.521eV) occ=1.000    -0.2429235E+00 (  -6.610eV) occ=1.000
    -0.2840976E+00 (  -7.731eV) occ=1.000    -0.2871232E+00 (  -7.813eV) occ=1.000
    -0.2973052E+00 (  -8.090eV) occ=1.000    -0.2963416E+00 (  -8.064eV) occ=1.000
    -0.3166783E+00 (  -8.617eV) occ=1.000    -0.2990791E+00 (  -8.138eV) occ=1.000
    -0.3227458E+00 (  -8.782eV) occ=1.000    -0.3096268E+00 (  -8.425eV) occ=1.000
    -0.3309985E+00 (  -9.007eV) occ=1.000    -0.3207609E+00 (  -8.728eV) occ=1.000
    -0.3460136E+00 (  -9.416eV) occ=1.000    -0.3424751E+00 (  -9.319eV) occ=1.000
    -0.3518513E+00 (  -9.574eV) occ=1.000    -0.3589723E+00 (  -9.768eV) occ=1.000
    -0.3632845E+00 (  -9.886eV) occ=1.000    -0.3723240E+00 ( -10.132eV) occ=1.000
    -0.3719813E+00 ( -10.122eV) occ=1.000    -0.3781239E+00 ( -10.289eV) occ=1.000
    -0.3852538E+00 ( -10.483eV) occ=1.000    -0.3796081E+00 ( -10.330eV) occ=1.000
    -0.3955020E+00 ( -10.762eV) occ=1.000    -0.3885887E+00 ( -10.574eV) occ=1.000
    -0.3989879E+00 ( -10.857eV) occ=1.000    -0.4007872E+00 ( -10.906eV) occ=1.000
    -0.4199123E+00 ( -11.426eV) occ=1.000    -0.4046358E+00 ( -11.011eV) occ=1.000
    -0.4209793E+00 ( -11.456eV) occ=1.000    -0.4229400E+00 ( -11.509eV) occ=1.000
    -0.4328039E+00 ( -11.777eV) occ=1.000    -0.4281324E+00 ( -11.650eV) occ=1.000
    -0.4408714E+00 ( -11.997eV) occ=1.000    -0.4305844E+00 ( -11.717eV) occ=1.000
    -0.4435983E+00 ( -12.071eV) occ=1.000    -0.4346460E+00 ( -11.827eV) occ=1.000
    -0.4489088E+00 ( -12.216eV) occ=1.000    -0.4393901E+00 ( -11.957eV) occ=1.000
    -0.4597567E+00 ( -12.511eV) occ=1.000    -0.4532939E+00 ( -12.335eV) occ=1.000
    -0.4675752E+00 ( -12.723eV) occ=1.000    -0.4549488E+00 ( -12.380eV) occ=1.000
    -0.4691738E+00 ( -12.767eV) occ=1.000    -0.4611222E+00 ( -12.548eV) occ=1.000
    -0.4805610E+00 ( -13.077eV) occ=1.000    -0.4763185E+00 ( -12.961eV) occ=1.000
    -0.4826032E+00 ( -13.132eV) occ=1.000    -0.4839119E+00 ( -13.168eV) occ=1.000
    -0.4932052E+00 ( -13.421eV) occ=1.000    -0.4903890E+00 ( -13.344eV) occ=1.000
    -0.5179928E+00 ( -14.095eV) occ=1.000    -0.5111648E+00 ( -13.910eV) occ=1.000
    -0.5247444E+00 ( -14.279eV) occ=1.000    -0.5164936E+00 ( -14.055eV) occ=1.000
    -0.5354512E+00 ( -14.570eV) occ=1.000    -0.5464009E+00 ( -14.868eV) occ=1.000
    -0.5525639E+00 ( -15.036eV) occ=1.000    -0.5513761E+00 ( -15.004eV) occ=1.000
    -0.5562957E+00 ( -15.138eV) occ=1.000    -0.5557048E+00 ( -15.122eV) occ=1.000
    -0.5667656E+00 ( -15.423eV) occ=1.000    -0.5611460E+00 ( -15.270eV) occ=1.000
    -0.5786970E+00 ( -15.747eV) occ=1.000    -0.5793498E+00 ( -15.765eV) occ=1.000
    -0.5905391E+00 ( -16.070eV) occ=1.000    -0.5897970E+00 ( -16.049eV) occ=1.000
    -0.6088265E+00 ( -16.567eV) occ=1.000    -0.6027784E+00 ( -16.403eV) occ=1.000
    -0.6240821E+00 ( -16.982eV) occ=1.000    -0.6167431E+00 ( -16.783eV) occ=1.000
[...]
     0.1939200E+00 (   5.277eV) occ=1.000     0.1964991E+00 (   5.347eV) occ=1.000
     0.1931226E+00 (   5.255eV) occ=1.000     0.1952823E+00 (   5.314eV) occ=1.000
     0.1889163E+00 (   5.141eV) occ=1.000     0.1935368E+00 (   5.266eV) occ=1.000
     0.1856235E+00 (   5.051eV) occ=1.000     0.1911790E+00 (   5.202eV) occ=1.000
     0.1834886E+00 (   4.993eV) occ=1.000     0.1873698E+00 (   5.099eV) occ=1.000
     0.1817905E+00 (   4.947eV) occ=1.000     0.1827665E+00 (   4.973eV) occ=1.000
     0.1787129E+00 (   4.863eV) occ=1.000     0.1821650E+00 (   4.957eV) occ=1.000
     0.1769168E+00 (   4.814eV) occ=1.000     0.1788981E+00 (   4.868eV) occ=1.000
     0.1752690E+00 (   4.769eV) occ=1.000     0.1752825E+00 (   4.770eV) occ=1.000
     0.1724865E+00 (   4.694eV) occ=1.000     0.1744072E+00 (   4.746eV) occ=1.000
     0.1635454E+00 (   4.450eV) occ=1.000     0.1704725E+00 (   4.639eV) occ=1.000
     0.1618738E+00 (   4.405eV) occ=1.000     0.1648171E+00 (   4.485eV) occ=1.000
     0.1613732E+00 (   4.391eV) occ=1.000     0.1620714E+00 (   4.410eV) occ=1.000
     0.1537287E+00 (   4.183eV) occ=1.000     0.1512838E+00 (   4.117eV) occ=1.000
     0.1465502E+00 (   3.988eV) occ=1.000     0.1478533E+00 (   4.023eV) occ=1.000
     0.1448108E+00 (   3.941eV) occ=1.000     0.1407850E+00 (   3.831eV) occ=1.000
     0.1367191E+00 (   3.720eV) occ=1.000     0.1393352E+00 (   3.792eV) occ=1.000
     0.1302708E+00 (   3.545eV) occ=1.000     0.1313988E+00 (   3.576eV) occ=1.000
     0.1256920E+00 (   3.420eV) occ=1.000     0.1287298E+00 (   3.503eV) occ=1.000
     0.1166332E+00 (   3.174eV) occ=1.000     0.1198906E+00 (   3.262eV) occ=1.000
     0.1115421E+00 (   3.035eV) occ=1.000     0.1155578E+00 (   3.145eV) occ=1.000
     0.1085895E+00 (   2.955eV) occ=1.000     0.1108764E+00 (   3.017eV) occ=1.000
     0.9961273E-01 (   2.711eV) occ=1.000     0.1017204E+00 (   2.768eV) occ=1.000
     0.9045783E-01 (   2.462eV) occ=1.000     0.9085948E-01 (   2.472eV) occ=1.000
     0.8562275E-01 (   2.330eV) occ=1.000     0.8598377E-01 (   2.340eV) occ=1.000
     0.6899408E-01 (   1.877eV) occ=1.000     0.7094482E-01 (   1.931eV) occ=1.000
     0.6686355E-01 (   1.819eV) occ=1.000     0.6852031E-01 (   1.865eV) occ=1.000
     0.1644398E-01 (   0.447eV) occ=1.000     0.1343930E-01 (   0.366eV) occ=1.000
    -0.2240229E-02 (  -0.061eV) occ=1.000    -0.5679367E-02 (  -0.155eV) occ=1.000
    -0.1529742E-01 (  -0.416eV) occ=1.000    -0.1579837E-01 (  -0.430eV) occ=1.000
    -0.3633031E-01 (  -0.989eV) occ=1.000    -0.3557742E-01 (  -0.968eV) occ=1.000
    -0.9084332E-01 (  -2.472eV) occ=1.000    -0.8874908E-01 (  -2.415eV) occ=1.000
    -0.2759767E+00 (  -7.510eV) occ=1.000    -0.2853157E+00 (  -7.764eV) occ=1.000
    -0.2916019E+00 (  -7.935eV) occ=1.000    -0.2896849E+00 (  -7.883eV) occ=1.000
    -0.2999484E+00 (  -8.162eV) occ=1.000    -0.2934696E+00 (  -7.986eV) occ=1.000
    -0.3131896E+00 (  -8.522eV) occ=1.000    -0.3077344E+00 (  -8.374eV) occ=1.000
    -0.3338895E+00 (  -9.086eV) occ=1.000    -0.3147229E+00 (  -8.564eV) occ=1.000
    -0.3396017E+00 (  -9.241eV) occ=1.000    -0.3307698E+00 (  -9.001eV) occ=1.000
    -0.3473744E+00 (  -9.453eV) occ=1.000    -0.3471251E+00 (  -9.446eV) occ=1.000
    -0.3546340E+00 (  -9.650eV) occ=1.000    -0.3616370E+00 (  -9.841eV) occ=1.000
    -0.3647572E+00 (  -9.926eV) occ=1.000    -0.3648299E+00 (  -9.928eV) occ=1.000
    -0.3662831E+00 (  -9.967eV) occ=1.000    -0.3681332E+00 ( -10.017eV) occ=1.000
    -0.3781392E+00 ( -10.290eV) occ=1.000    -0.3749609E+00 ( -10.203eV) occ=1.000
    -0.3860111E+00 ( -10.504eV) occ=1.000    -0.3943417E+00 ( -10.731eV) occ=1.000
    -0.3953104E+00 ( -10.757eV) occ=1.000    -0.3951123E+00 ( -10.752eV) occ=1.000
    -0.4218603E+00 ( -11.479eV) occ=1.000    -0.4040435E+00 ( -10.995eV) occ=1.000
    -0.4260218E+00 ( -11.593eV) occ=1.000    -0.4188234E+00 ( -11.397eV) occ=1.000
    -0.4335552E+00 ( -11.798eV) occ=1.000    -0.4298834E+00 ( -11.698eV) occ=1.000
    -0.4414235E+00 ( -12.012eV) occ=1.000    -0.4390122E+00 ( -11.946eV) occ=1.000
    -0.4480503E+00 ( -12.192eV) occ=1.000    -0.4438515E+00 ( -12.078eV) occ=1.000
    -0.4516542E+00 ( -12.290eV) occ=1.000    -0.4479805E+00 ( -12.190eV) occ=1.000
    -0.4596704E+00 ( -12.508eV) occ=1.000    -0.4522688E+00 ( -12.307eV) occ=1.000
    -0.4766446E+00 ( -12.970eV) occ=1.000    -0.4649991E+00 ( -12.653eV) occ=1.000
    -0.4772439E+00 ( -12.987eV) occ=1.000    -0.4729341E+00 ( -12.869eV) occ=1.000
    -0.4847572E+00 ( -13.191eV) occ=1.000    -0.4840318E+00 ( -13.171eV) occ=1.000
    -0.4902693E+00 ( -13.341eV) occ=1.000    -0.4865041E+00 ( -13.239eV) occ=1.000
    -0.5023011E+00 ( -13.668eV) occ=1.000    -0.4979252E+00 ( -13.549eV) occ=1.000
    -0.5081828E+00 ( -13.828eV) occ=1.000    -0.5119751E+00 ( -13.932eV) occ=1.000
    -0.5396614E+00 ( -14.685eV) occ=1.000    -0.5403658E+00 ( -14.704eV) occ=1.000
    -0.5499029E+00 ( -14.964eV) occ=1.000    -0.5518726E+00 ( -15.017eV) occ=1.000
    -0.5715715E+00 ( -15.553eV) occ=1.000    -0.5662125E+00 ( -15.408eV) occ=1.000
    -0.5819121E+00 ( -15.835eV) occ=1.000    -0.5754073E+00 ( -15.658eV) occ=1.000
    -0.5887365E+00 ( -16.020eV) occ=1.000    -0.5803355E+00 ( -15.792eV) occ=1.000
    -0.5973907E+00 ( -16.256eV) occ=1.000    -0.5929181E+00 ( -16.134eV) occ=1.000
    -0.6024457E+00 ( -16.394eV) occ=1.000    -0.5992585E+00 ( -16.307eV) occ=1.000
    -0.6064544E+00 ( -16.503eV) occ=1.000    -0.6016461E+00 ( -16.372eV) occ=1.000
    -0.6159030E+00 ( -16.760eV) occ=1.000    -0.6152005E+00 ( -16.741eV) occ=1.000
    -0.6217761E+00 ( -16.920eV) occ=1.000    -0.6192977E+00 ( -16.852eV) occ=1.000
    -0.6612493E+00 ( -17.994eV) occ=1.000    -0.6644187E+00 ( -18.080eV) occ=1.000
    -0.7298818E+00 ( -19.861eV) occ=1.000    -0.7356016E+00 ( -20.017eV) occ=1.000
    -0.1291082E+01 ( -35.132eV) occ=1.000    -0.1287932E+01 ( -35.047eV) occ=1.000
    -0.1298502E+01 ( -35.334eV) occ=1.000    -0.1293842E+01 ( -35.208eV) occ=1.000
    -0.1310104E+01 ( -35.650eV) occ=1.000    -0.1296554E+01 ( -35.281eV) occ=1.000
    -0.1318296E+01 ( -35.873eV) occ=1.000    -0.1305532E+01 ( -35.526eV) occ=1.000
    -0.1338276E+01 ( -36.417eV) occ=1.000    -0.1332144E+01 ( -36.250eV) occ=1.000
    -0.1341110E+01 ( -36.494eV) occ=1.000    -0.1338268E+01 ( -36.416eV) occ=1.000
    -0.1361259E+01 ( -37.042eV) occ=1.000    -0.1356640E+01 ( -36.916eV) occ=1.000
    -0.1369123E+01 ( -37.256eV) occ=1.000    -0.1363165E+01 ( -37.094eV) occ=1.000
    -0.1377818E+01 ( -37.493eV) occ=1.000    -0.1376144E+01 ( -37.447eV) occ=1.000
    -0.1384764E+01 ( -37.682eV) occ=1.000    -0.1386266E+01 ( -37.723eV) occ=1.000
    -0.1405199E+01 ( -38.238eV) occ=1.000    -0.1405530E+01 ( -38.247eV) occ=1.000
    -0.1417798E+01 ( -38.581eV) occ=1.000    -0.1418068E+01 ( -38.588eV) occ=1.000

 Total BAND energy   :  -0.6475069213E+03


=== Spin Contamination ===

 <Sexact^2> =    2.0000000000000000     
 <S^2>      =    11.491798350474799     



========================
= Gradient calculation =
========================


Translation force removed: (    0.00000   -0.00001    0.00139)


          =============  Ion Gradients =================
 Ion Forces:
        1 U    (   -0.00000    0.00001   -0.00139 )
        2 U    (   -0.00000    0.00001   -0.00139 )
        3 U    (   -0.00000    0.00001   -0.00139 )
        4 U    (   -0.00000    0.00001   -0.00139 )
        5 U    (   -0.00000    0.00001   -0.00139 )
        6 U    (   -0.00000    0.00001   -0.00139 )
        7 U    (   -0.00000    0.00001   -0.00139 )
        8 U    (   -0.00000    0.00001   -0.00139 )
        9 U    (   -0.00000    0.00001   -0.00139 )
       10 U    (   -0.00000    0.00001   -0.00139 )
       11 U    (   -0.00000    0.00001   -0.00139 )
       12 U    (   -0.00000    0.00001   -0.00139 )
       13 O    (   -0.13442   -0.12851    0.11854 )
       14 O    (    0.13459    0.12624    0.12991 )
        C.O.M. (    0.00000   -0.00000   -0.00000 )
          ===============================================
          |F|       =   0.315574E+00
          |F|/nion  =   0.225410E-01
          max|Fatom|=   0.225674E+00 (  11.605eV/Angstrom)



 Writing Crystallographic Information File:./perm/U8O2-110.opt.cif
   - cell not shifted (nwpw:cif_shift_cell .false.)

 output psi filename:./perm/U8O2_3-110-opt.movecs


== Timing ==

cputime in seconds
  prologue    :   0.496918E+02
  main loop   :   0.130660E+05
  epilogue    :   0.124245E+03
  total       :   0.132400E+05
  cputime/step:   0.106228E+02       (    1230 evalulations,     504 linesearches)


Time spent doing                        total          step
  FFTs                       :   0.478191E+02  0.388773E-01
  dot products               :   0.770569E+04  0.626479E+01
  geodesic                   :   0.496508E+04  0.403665E+01
  ffm_dgemm                  :   0.000000E+00  0.000000E+00
  fmf_dgemm                  :   0.000000E+00  0.000000E+00
  m_diagonalize              :   0.000000E+00  0.000000E+00
    - m_tredq                :   0.000000E+00  0.000000E+00
       - m_tredq_houseq      :   0.000000E+00  0.000000E+00
       - m_tredq_houseq_dgemm:   0.000000E+00  0.000000E+00
       - m_tredq_dgemm1      :   0.000000E+00  0.000000E+00
    - m_getdiags             :   0.000000E+00  0.000000E+00
    - m_tqliq                :   0.000000E+00  0.000000E+00
    - m_eigsrt               :   0.000000E+00  0.000000E+00
  exchange correlation       :   0.641387E+02  0.521453E-01
  local pseudopotentials     :   0.587106E-02  0.477322E-05
  non-local pseudopotentials :   0.196912E+04  0.160091E+01
  hartree potentials         :   0.387456E+00  0.315005E-03
  ion-ion interaction        :   0.484932E+02  0.394253E-01
  structure factors          :   0.145025E+01  0.117906E-02
  phase factors              :   0.000000E+00  0.000000E+00
  masking and packing        :   0.135766E+03  0.110379E+00
  queue fft                  :   0.120368E+04  0.978604E+00
  queue fft (serial)         :   0.297715E+03  0.242045E+00
  queue fft (message passing):   0.880335E+03  0.715720E+00
  HFX potential              :   0.000000E+00  0.000000E+00
  qmmm LJ                    :   0.000000E+00  0.000000E+00
  qmmm residual Q            :   0.000000E+00  0.000000E+00

     >>>  JOB COMPLETED     AT Sun Apr  7 12:10:16 2013  <<<

  Step       Energy      Delta E   Gmax     Grms     Xrms     Xmax   Walltime
  ---- ---------------- -------- -------- -------- -------- -------- --------
@    2    -647.50692127 -2.8D-01  5.33460  1.20527  0.00617  0.02307  80894.5
                                                       ok           

 Restricting overall step due to large component. alpha=  0.96

          --------
          Step   3
          --------


                         Geometry "geometry" -> "geometry"
                         ---------------------------------

 Output coordinates in angstroms (scale by  1.889725989 to convert to a.u.)

  No.       Tag          Charge          X              Y              Z
 ---- ---------------- ---------- -------------- -------------- --------------
    1 U1                  92.0000     0.00000000     0.00000000    14.53780460
    2 U2                  92.0000     1.72000000     2.43250000    14.53780460
    3 U3                  92.0000     3.44000000     0.00000000    14.53780460
    4 U4                  92.0000     5.16000000     2.43250000    14.53780460
    5 U5                  92.0000     0.00000000     2.43250000    12.84460300
    6 U6                  92.0000     1.72000000     0.00000000    12.84460300
    7 U7                  92.0000     3.44000000     2.43250000    12.84460300
    8 U8                  92.0000     5.16000000     0.00000000    12.84460300
    9 U9                  92.0000     0.00000000     0.00000000    10.86500000
   10 U10                 92.0000     1.72000000     2.43250000    10.86500000
   11 U11                 92.0000     3.44000000     0.00000000    10.86500000
   12 U12                 92.0000     5.16000000     2.43250000    10.86500000
   13 O1                   8.0000     1.58048656     0.97057489    15.74552720
   14 O2                   8.0000     3.57246286     1.43020388    15.81968608

      Lattice Parameters 
      ------------------ 

      lattice vectors in angstroms (scale by  1.889725989 to convert to a.u.)

      a1=<   6.880   0.000   0.000 >
      a2=<   0.000   4.865   0.000 >
      a3=<   0.000   0.000  21.730 >
      a=       6.880 b=      4.865 c=      21.730
      alpha=  90.000 beta=  90.000 gamma=  90.000
      omega=   727.3

      reciprocal lattice vectors in a.u.

      b1=<   0.483   0.000  -0.000 >
      b2=<  -0.000   0.683  -0.000 >
      b3=<   0.000   0.000   0.153 >

      Atomic Mass 
      ----------- 

      U1               238.050800
      U2               238.050800
      U3               238.050800
      U4               238.050800
      U5               238.050800
      U6               238.050800
      U7               238.050800
      U8               238.050800
      U9               238.050800
      U10              238.050800
      U11              238.050800
      U12              238.050800
      O1                15.994910
      O2                15.994910


          **********************************************************
          *                                                        *
          *                   NWPW BAND Calculation                *
          *                                                        *
          *  [(bundled Grassman/Stiefel manifold implementation)]  *
          *                                                        *
          *         [ NorthWest Chemistry implementation ]         *
          *                                                        *
          *                version #1.10   01/31/03                *
          *                                                        *
          *  A pseudopotential plane-wave band structure program   *
          *  with Brillouin zone sampling for optimizing crystals, *
          *  slabs, and polymers.  Developed by Eric J. Bylaska    *
          *  , Edoardo Apra, and Patrick Nichols.                  *
          *                                                        *
          **********************************************************
     >>>  JOB STARTED       AT Sun Apr  7 12:10:16 2013  <<<
          ================ input data ========================

 input psi filename:./perm/U8O2_3-110-opt.movecs

 Fixed ion positions:    1    2    3    4    5    6    7    8    9   10
 Fixed ion positions:   11   12


 number of processors used:             288
 processor grid           :  36 x   1 x   8
 parallel mapping         :     2d  hilbert

 options:
      boundary conditions  = periodic    (version3)
      electron spin        = unrestricted
      exchange-correlation = PBE96 (White and Bird) parameterization

 elements involved in the cluster:
      1: U     core charge:14.0  lmax=3
             comment    : Parameterized (J.Chem. Phys. vol 128, 124507 (2008)) Troullier-Martins psp
             pseudpotential type            :   0
             highest angular component      :   3
             local potential used           :   0
             number of non-local projections:  15
             cutoff =   1.421   1.602   2.400   1.250
      2: O     core charge: 6.0  lmax=2
             comment    : Parameterized (Chem.Phys.Lett., vol 322, page 447) Hamman psp
             pseudpotential type            :   0
             highest angular component      :   2
             local potential used           :   2
             number of non-local projections:   4
             cutoff =   0.700   0.700   0.700

 total charge:   0.000

 atomic composition:
     U   : 12     O   :  2

 number of electrons: spin up=   91.00  spin down=   89.00 (fourier space)
 number of orbitals:  spin up=      91  spin down=      89 (fourier space)

 supercell:
      lattice:    a1=<  13.001   0.000   0.000 >
                  a2=<   0.000   9.194   0.000 >
                  a3=<   0.000   0.000  41.064 >
      reciprocal: b1=<   0.483   0.000  -0.000 >
                  b2=<  -0.000   0.683  -0.000 >
                  b3=<   0.000   0.000   0.153 >

      lattice:    a=  13.001    b=   9.194     c=  41.064
              alpha=  90.000 beta=  90.000 gamma=  90.000
      volume :     4908.3
      ewald summation: cut radius=    3.00  and  8
                        madelung=-0.10715872

 brillouin zone:
      number of zone points:     8
      weight=   0.125  ks=<   0.375   0.375   0.000 >, k=<   0.181   0.256  -0.000>
      weight=   0.125  ks=<   0.125   0.375   0.000 >, k=<   0.060   0.256  -0.000>
      weight=   0.125  ks=<  -0.125   0.375   0.000 >, k=<  -0.060   0.256  -0.000>
      weight=   0.125  ks=<   0.375  -0.375   0.000 >, k=<   0.181  -0.256   0.000>
      weight=   0.125  ks=<   0.375   0.125   0.000 >, k=<   0.181   0.085  -0.000>
      weight=   0.125  ks=<   0.125   0.125   0.000 >, k=<   0.060   0.085  -0.000>
      weight=   0.125  ks=<   0.125  -0.125   0.000 >, k=<   0.060  -0.085   0.000>
      weight=   0.125  ks=<   0.375  -0.125   0.000 >, k=<   0.181  -0.085  -0.000>

 computational grids:
      density     cutoff=117.061  fft=  64x  48x 200(   297005 waves     8250 per task)
      wavefnc   1 cutoff= 90.000  fft=  64x  48x 200(   200071 waves     5557 per task)
      wavefnc   2 cutoff= 90.000  fft=  64x  48x 200(   200127 waves     5559 per task)
      wavefnc   3 cutoff= 90.000  fft=  64x  48x 200(   200127 waves     5559 per task)
      wavefnc   4 cutoff= 90.000  fft=  64x  48x 200(   200071 waves     5557 per task)
      wavefnc   5 cutoff= 90.000  fft=  64x  48x 200(   200199 waves     5561 per task)
      wavefnc   6 cutoff= 90.000  fft=  64x  48x 200(   200160 waves     5560 per task)
      wavefnc   7 cutoff= 90.000  fft=  64x  48x 200(   200160 waves     5560 per task)
      wavefnc   8 cutoff= 90.000  fft=  64x  48x 200(   200199 waves     5561 per task)

 technical parameters:
      time step=      5.80     ficticious mass=  400000.0
      tolerance=.100E-06 (energy)   0.100E-06 (density)
      maximum iterations =      3000 (   10 inner    300 outer )



= energy calculation =


          ======== bundled Grassmann lmbfgs iteration ========
     >>>  ITERATION STARTED AT Sun Apr  7 12:11:05 2013  <<<
    iter.           Energy         DeltaE       DeltaRho 
    ------------------------------------------------------
      10   -0.6475310651E+03   -0.21061E-01    0.85839E+00
     -  10 steepest descent iterations performed
      20   -0.6476015681E+03   -0.10455E-02    0.41220E-02
      30   -0.6476091791E+03   -0.36020E-03    0.41501E-03
      40   -0.6476113045E+03   -0.14482E-03    0.82739E-04
      50   -0.6476122731E+03   -0.77645E-04    0.37226E-04
      60   -0.6476128200E+03   -0.46308E-04    0.26344E-04
      70   -0.6476131629E+03   -0.29791E-04    0.17696E-04
      80   -0.6476134036E+03   -0.21900E-04    0.15294E-04
      90   -0.6476135690E+03   -0.15019E-04    0.12046E-04
     100   -0.6476136888E+03   -0.10575E-04    0.10123E-04
     110   -0.6476137795E+03   -0.82477E-05    0.85882E-05
     120   -0.6476138510E+03   -0.63722E-05    0.76410E-05
     130   -0.6476139091E+03   -0.53061E-05    0.67477E-05
     140   -0.6476139574E+03   -0.44583E-05    0.59960E-05
     150   -0.6476140000E+03   -0.39976E-05    0.58216E-05
     160   -0.6476140396E+03   -0.37966E-05    0.62254E-05
     170   -0.6476140772E+03   -0.36315E-05    0.69259E-05
     180   -0.6476141145E+03   -0.37899E-05    0.82811E-05
     -  10 steepest descent iterations performed
     190   -0.6476141463E+03   -0.22351E-05    0.40025E-06
     200   -0.6476141685E+03   -0.22988E-05    0.11200E-05
0:Terminate signal was sent, status=: 15
(rank:0 hostname:taub372 pid:30539):ARMCI DASSERT fail. ../../ga-5-1/armci/src/common/signaltrap.c:SigTermHandler():472 cond:0
     -  10 steepest descent iterations performed
